<LesHouchesEvents version="3.0">
  <header>
  Some header info that would normally go here, skipped for brevity.
  </header>
  <init>
   2212   2212 0.65000000E+04 0.65000000E+04 -1 -1 244600 244600 -4   1
 0.35828649E+09 0.69440512E+07 0.73489293E+09      0
  </init>
  <event>
  5      0 0.73489293E+09 0.20390587E+02 0.75467716E-02 0.17468230E+00
       21 -1    0    0  503  502 0.00000000E+00 0.00000000E+00 0.37252853E+01 0.38000330E+01 0.75000000E+00 0.0000E+00 0.9000E+01
        3 -1    0    0  501    0 0.00000000E+00 0.00000000E+00 -.54718438E+02 0.54720723E+02 0.50000000E+00 0.0000E+00 0.9000E+01
        5  1    1    2  501    0 0.75303188E+01 -.35098864E+01 -.14388032E+02 0.17266455E+02 0.47000000E+01 0.0000E+00 0.9000E+01
       -5  1    1    2    0  502 -.90911722E+00 -.15119525E+01 -.15943299E+01 0.52672937E+01 0.47000000E+01 0.0000E+00 0.9000E+01
        3  1    1    2  503    0 -.66212016E+01 0.50218389E+01 -.35010791E+02 0.35987007E+02 0.50000000E+00 0.0000E+00 0.9000E+01
#aMCatNLO 2  5  2  2  1 0.83101852E+01 0.83101852E+01 9  0  0 0.10000000E+01 0.36170780E+00 0.24944928E+01 0.00000000E+00 0.00000000E+00
  <rwgt>
   <wgt id='1001'> 0.73489E+09 </wgt>
   <wgt id='1002'> 0.10903E+10 </wgt>
   <wgt id='1003'> 0.41208E+09 </wgt>
   <wgt id='1004'> 0.47405E+09 </wgt>
   <wgt id='1005'> 0.70333E+09 </wgt>
   <wgt id='1006'> 0.26581E+09 </wgt>
   <wgt id='1007'> 0.12356E+10 </wgt>
   <wgt id='1008'> 0.18332E+10 </wgt>
   <wgt id='1009'> 0.69284E+09 </wgt>
  </rwgt>
  </event>
  <event>
  5      0 0.73489293E+09 0.30000000E+02 0.75467716E-02 0.18464115E+00
       21 -1    0    0  503  504 0.00000000E+00 0.00000000E+00 0.52701967E+02 0.52707303E+02 0.75000000E+00 0.0000E+00 0.9000E+01
       21 -1    0    0  501  503 0.00000000E+00 0.00000000E+00 -.93562475E+01 0.93862595E+01 0.75000000E+00 0.0000E+00 0.9000E+01
        5  1    1    2  501    0 0.18598615E+01 -.81196688E+00 -.76007393E+01 0.91640391E+01 0.47000000E+01 0.0000E+00 0.9000E+01
       -5  1    1    2    0  502 0.23036270E+01 -.39970636E+01 0.14513516E+02 0.15937859E+02 0.47000000E+01 0.0000E+00 0.9000E+01
       21  1    1    2  502  504 -.41634885E+01 0.48090304E+01 0.36432943E+02 0.36991664E+02 0.75000000E+00 0.0000E+00 0.9000E+01
#aMCatNLO 2  5  1  1  2 0.63609284E+01 0.63609284E+01 9  0  0 0.99999969E+00 0.35792577E+00 0.24928632E+01 0.00000000E+00 0.00000000E+00
  <rwgt>
   <wgt id='1001'> 0.73489E+09 </wgt>
   <wgt id='1002'> 0.10480E+10 </wgt>
   <wgt id='1003'> 0.41791E+09 </wgt>
   <wgt id='1004'> 0.46255E+09 </wgt>
   <wgt id='1005'> 0.65961E+09 </wgt>
   <wgt id='1006'> 0.26304E+09 </wgt>
   <wgt id='1007'> 0.12847E+10 </wgt>
   <wgt id='1008'> 0.18320E+10 </wgt>
   <wgt id='1009'> 0.73056E+09 </wgt>
  </rwgt>
  </event>
  <event>
  5      0 0.73489293E+09 0.19949660E+02 0.75467716E-02 0.17510059E+00
       21 -1    0    0  501  502 0.00000000E+00 0.00000000E+00 0.19677705E+01 0.21058539E+01 0.75000000E+00 0.0000E+00 0.9000E+01
       21 -1    0    0  502  503 -.00000000E+00 -.00000000E+00 -.10172815E+03 0.10173091E+03 0.75000000E+00 0.0000E+00 0.9000E+01
        5  1    1    2  501    0 0.43658796E+01 0.59771666E+01 -.17102795E+02 0.19219340E+02 0.47000000E+01 0.0000E+00 0.9000E+01
       -5  1    1    2    0  504 0.11589121E+01 0.86140266E+00 -.61466282E+02 0.61662622E+02 0.47000000E+01 0.0000E+00 0.9000E+01
       21  1    1    2  504  503 -.55247917E+01 -.68385693E+01 -.21191297E+02 0.22954802E+02 0.75000000E+00 0.0000E+00 0.9000E+01
#aMCatNLO 2  5  4  4  1 0.73233890E+01 0.73233890E+01 9  0  0 0.10000000E+01 0.36909239E+00 0.24359868E+01 0.00000000E+00 0.00000000E+00
  <rwgt>
   <wgt id='1001'> 0.73489E+09 </wgt>
   <wgt id='1002'> 0.10632E+10 </wgt>
   <wgt id='1003'> 0.42094E+09 </wgt>
   <wgt id='1004'> 0.47355E+09 </wgt>
   <wgt id='1005'> 0.68512E+09 </wgt>
   <wgt id='1006'> 0.27124E+09 </wgt>
   <wgt id='1007'> 0.12374E+10 </wgt>
   <wgt id='1008'> 0.17901E+10 </wgt>
   <wgt id='1009'> 0.70874E+09 </wgt>
  </rwgt>
  </event>
</LesHouchesEvents>
