<LesHouchesEvents version="3.0">
<header>
<!--
#*********************************************************************
#                                                                    *
#                        MadGraph5_aMC@NLO                           *
#                                                                    *
#                           Going Beyond                             *
#                                                                    *
#                   http://madgraph.hep.uiuc.edu                     *
#                   http://madgraph.phys.ucl.ac.be                   *
#                   http://amcatnlo.cern.ch                          *
#                                                                    *
#                     The MadGraph5_aMC@NLO team                     *
#                                                                    *
#....................................................................*
#                                                                    *
# This file contains all the information necessary to reproduce      *
# the events generated:                                              *
#                                                                    *
# 1. software version                                                *
# 2. proc_card          : code generation info including model       *
# 3. param_card         : model primary parameters in the LH format  *
# 4. run_card           : running parameters (collider and cuts)     *
# 5. pythia_card        : present only if pythia has been run        *
# 6. pgs_card           : present only if pgs has been run           *
# 7. delphes_cards      : present only if delphes has been run       *
#                                                                    *
#                                                                    *
#*********************************************************************
-->
<MGVersion>
2.1.2
</MGVersion>
<MG5ProcCard>
#************************************************************
#*                     MadGraph5_aMC@NLO                    *
#*                                                          *
#*                *                       *                 *
#*                  *        * *        *                   *
#*                    * * * * 5 * * * *                     *
#*                  *        * *        *                   *
#*                *                       *                 *
#*                                                          *
#*                                                          *
#*         VERSION 2.1.2                 2014-07-03         *
#*                                                          *
#*    The MadGraph5_aMC@NLO Development Team - Find us at   *
#*    https://server06.fynu.ucl.ac.be/projects/madgraph     *
#*                                                          *
#************************************************************
#*                                                          *
#*               Command File for MadGraph5_aMC@NLO         *
#*                                                          *
#*     run as ./bin/mg5_aMC  filename                       *
#*                                                          *
#************************************************************
set group_subprocesses Auto
set ignore_six_quark_processes False
set loop_optimized_output True
set gauge unitary
set complex_mass_scheme False
import model sm
define p = g u c d s u~ c~ d~ s~
define j = g u c d s u~ c~ d~ s~
define l+ = e+ mu+
define l- = e- mu-
define vl = ve vm vt
define vl~ = ve~ vm~ vt~
generate p p > t t~ t t~
output SM_4T
</MG5ProcCard>
<MGProcCard>
#*********************************************************************
#                        MadGraph/MadEvent                           *
#                   http://madgraph.hep.uiuc.edu                     *
#                                                                    *
#                          proc_card.dat                             *
#*********************************************************************
#                                                                    *
#            This Files is generated by MADGRAPH 5                   *
#                                                                    *
# WARNING: This Files is generated for MADEVENT (compatibility issue)*
#          This files is NOT a valid MG4 proc_card.dat               *
#          Running this in MG4 will NEVER reproduce the result of MG5*
#                                                                    *
#*********************************************************************
#*********************************************************************
# Process(es) requested : mg2 input                                  *
#*********************************************************************
# Begin PROCESS # This is TAG. Do not modify this line
p p > t t~ t t~           #Process
# Be carefull the coupling are here in MG5 convention
          
end_coup           # End the couplings input

done               # this tells MG there are no more procs
# End PROCESS  # This is TAG. Do not modify this line
#*********************************************************************
# Model information                                                  *
#*********************************************************************
# Begin MODEL  # This is TAG. Do not modify this line
sm
# End   MODEL  # This is TAG. Do not modify this line
#*********************************************************************
# Start multiparticle definitions                                    *
#*********************************************************************
# Begin MULTIPARTICLES # This is TAG. Do not modify this line

# End  MULTIPARTICLES # This is TAG. Do not modify this line
</MGProcCard>
<MGRunCard>
#*********************************************************************
#                       MadGraph5_aMC@NLO                            *
#                                                                    *
#                     run_card.dat MadEvent                          *
#                                                                    *
#  This file is used to set the parameters of the run.               *
#                                                                    *
#  Some notation/conventions:                                        *
#                                                                    *
#   Lines starting with a '# ' are info or comments                  *
#                                                                    *
#   mind the format:   value    = variable     ! comment             *
#*********************************************************************
#
#*******************                                                 
# Running parameters
#*******************                                                 
#                                                                    
#*********************************************************************
# Tag name for the run (one word)                                    *
#*********************************************************************
  tag_1     = run_tag ! name of the run 
#*********************************************************************
# Run to generate the grid pack                                      *
#*********************************************************************
  .false.     = gridpack  !True = setting up the grid pack
#*********************************************************************
# Number of events and rnd seed                                      *
# Warning: Do not generate more than 1M events in a single run       *
# If you want to run Pythia, avoid more than 50k events in a run.    *
#*********************************************************************
  2000 = nevents ! Number of unweighted events requested 
 21 = iseed   ! rnd seed (0=assigned automatically=default))
#*********************************************************************
# Collider type and energy                                           *
# lpp: 0=No PDF, 1=proton, -1=antiproton, 2=photon from proton,      *
#                                         3=photon from electron     *
#*********************************************************************
        1     = lpp1    ! beam 1 type 
        1     = lpp2    ! beam 2 type
     6500     = ebeam1  ! beam 1 total energy in GeV
     6500     = ebeam2  ! beam 2 total energy in GeV
#*********************************************************************
# Beam polarization from -100 (left-handed) to 100 (right-handed)    *
#*********************************************************************
        0     = polbeam1 ! beam polarization for beam 1
        0     = polbeam2 ! beam polarization for beam 2
#*********************************************************************
# PDF CHOICE: this automatically fixes also alpha_s and its evol.    *
#*********************************************************************
 'nn23lo1'    = pdlabel     ! PDF set                                     
#*********************************************************************
# Renormalization and factorization scales                           *
#*********************************************************************
 F        = fixed_ren_scale  ! if .true. use fixed ren scale
 F        = fixed_fac_scale  ! if .true. use fixed fac scale
 91.1880  = scale            ! fixed ren scale
 91.1880  = dsqrt_q2fact1    ! fixed fact scale for pdf1
 91.1880  = dsqrt_q2fact2    ! fixed fact scale for pdf2
 1        = scalefact        ! scale factor for event-by-event scales
#*********************************************************************
# Matching - Warning! ickkw > 1 is still beta
#*********************************************************************
 0        = ickkw            ! 0 no matching, 1 MLM, 2 CKKW matching
 1        = highestmult      ! for ickkw=2, highest mult group
 1        = ktscheme         ! for ickkw=1, 1 Durham kT, 2 Pythia pTE
 1        = alpsfact         ! scale factor for QCD emission vx
 F        = chcluster        ! cluster only according to channel diag
 T        = pdfwgt           ! for ickkw=1, perform pdf reweighting
 5        = asrwgtflavor     ! highest quark flavor for a_s reweight
 T        = clusinfo         ! include clustering tag in output
 3.0      = lhe_version       ! Change the way clustering information pass to shower.        
#*********************************************************************
#**********************************************************
#
#**********************************************************
# Automatic ptj and mjj cuts if xqcut > 0
# (turn off for VBF and single top processes)
#**********************************************************
   T  = auto_ptj_mjj  ! Automatic setting of ptj and mjj
#**********************************************************
#                                                                    
#**********************************
# BW cutoff (M+/-bwcutoff*Gamma)
#**********************************
  15  = bwcutoff      ! (M+/-bwcutoff*Gamma)
#**********************************************************
# Apply pt/E/eta/dr/mij cuts on decay products or not
# (note that etmiss/ptll/ptheavy/ht/sorted cuts always apply)
#**********************************************************
   T  = cut_decays    ! Cut decay products 
#*************************************************************
# Number of helicities to sum per event (0 = all helicities)
# 0 gives more stable result, but longer run time (needed for
# long decay chains e.g.).
# Use >=2 if most helicities contribute, e.g. pure QCD.
#*************************************************************
   0  = nhel          ! Number of helicities used per event
#*******************                                                 
# Standard Cuts
#*******************                                                 
#                                                                    
#*********************************************************************
# Minimum and maximum pt's (for max, -1 means no cut)                *
#*********************************************************************
 20  = ptj       ! minimum pt for the jets 
  0  = ptb       ! minimum pt for the b 
 10  = pta       ! minimum pt for the photons 
 10  = ptl       ! minimum pt for the charged leptons 
  0  = misset    ! minimum missing Et (sum of neutrino's momenta)
  0  = ptheavy   ! minimum pt for one heavy final state
 1.0 = ptonium   ! minimum pt for the quarkonium states
 -1  = ptjmax    ! maximum pt for the jets
 -1  = ptbmax    ! maximum pt for the b
 -1  = ptamax    ! maximum pt for the photons
 -1  = ptlmax    ! maximum pt for the charged leptons
 -1  = missetmax ! maximum missing Et (sum of neutrino's momenta)
#*********************************************************************
# Minimum and maximum E's (in the center of mass frame)              *
#*********************************************************************
  0  = ej     ! minimum E for the jets 
  0  = eb     ! minimum E for the b 
  0  = ea     ! minimum E for the photons 
  0  = el     ! minimum E for the charged leptons 
 -1   = ejmax ! maximum E for the jets
 -1   = ebmax ! maximum E for the b
 -1   = eamax ! maximum E for the photons
 -1   = elmax ! maximum E for the charged leptons
#*********************************************************************
# Maximum and minimum absolute rapidity (for max, -1 means no cut)   *
#*********************************************************************
   5  = etaj    ! max rap for the jets 
  -1  = etab    ! max rap for the b
 2.5  = etaa    ! max rap for the photons 
 2.5  = etal    ! max rap for the charged leptons 
 0.6  = etaonium ! max rap for the quarkonium states
   0  = etajmin ! min rap for the jets
   0  = etabmin ! min rap for the b
   0  = etaamin ! min rap for the photons
   0  = etalmin ! main rap for the charged leptons
#*********************************************************************
# Minimum and maximum DeltaR distance                                *
#*********************************************************************
 0.4 = drjj    ! min distance between jets 
 0   = drbb    ! min distance between b's 
 0.4 = drll    ! min distance between leptons 
 0.4 = draa    ! min distance between gammas 
 0   = drbj    ! min distance between b and jet 
 0.4 = draj    ! min distance between gamma and jet 
 0.4 = drjl    ! min distance between jet and lepton 
 0   = drab    ! min distance between gamma and b 
 0   = drbl    ! min distance between b and lepton 
 0.4 = dral    ! min distance between gamma and lepton 
 -1  = drjjmax ! max distance between jets
 -1  = drbbmax ! max distance between b's
 -1  = drllmax ! max distance between leptons
 -1  = draamax ! max distance between gammas
 -1  = drbjmax ! max distance between b and jet
 -1  = drajmax ! max distance between gamma and jet
 -1  = drjlmax ! max distance between jet and lepton
 -1  = drabmax ! max distance between gamma and b
 -1  = drblmax ! max distance between b and lepton
 -1  = dralmax ! maxdistance between gamma and lepton
#*********************************************************************
# Minimum and maximum invariant mass for pairs                       *
# WARNING: for four lepton final state mmll cut require to have      *
#          different lepton masses for each flavor!                  *           
#*********************************************************************
 0   = mmjj    ! min invariant mass of a jet pair 
 0   = mmbb    ! min invariant mass of a b pair 
 0   = mmaa    ! min invariant mass of gamma gamma pair
 0   = mmll    ! min invariant mass of l+l- (same flavour) lepton pair
 -1  = mmjjmax ! max invariant mass of a jet pair
 -1  = mmbbmax ! max invariant mass of a b pair
 -1  = mmaamax ! max invariant mass of gamma gamma pair
 -1  = mmllmax ! max invariant mass of l+l- (same flavour) lepton pair
#*********************************************************************
# Minimum and maximum invariant mass for all letpons                 *
#*********************************************************************
 0   = mmnl    ! min invariant mass for all letpons (l+- and vl) 
 -1  = mmnlmax ! max invariant mass for all letpons (l+- and vl) 
#*********************************************************************
# Minimum and maximum pt for 4-momenta sum of leptons                *
#*********************************************************************
 0   = ptllmin  ! Minimum pt for 4-momenta sum of leptons(l and vl)
 -1  = ptllmax  ! Maximum pt for 4-momenta sum of leptons(l and vl)
#*********************************************************************
# Inclusive cuts                                                     *
#*********************************************************************
 0  = xptj ! minimum pt for at least one jet  
 0  = xptb ! minimum pt for at least one b 
 0  = xpta ! minimum pt for at least one photon 
 0  = xptl ! minimum pt for at least one charged lepton 
#*********************************************************************
# Control the pt's of the jets sorted by pt                          *
#*********************************************************************
 0   = ptj1min ! minimum pt for the leading jet in pt
 0   = ptj2min ! minimum pt for the second jet in pt
 0   = ptj3min ! minimum pt for the third jet in pt
 0   = ptj4min ! minimum pt for the fourth jet in pt
 -1  = ptj1max ! maximum pt for the leading jet in pt 
 -1  = ptj2max ! maximum pt for the second jet in pt
 -1  = ptj3max ! maximum pt for the third jet in pt
 -1  = ptj4max ! maximum pt for the fourth jet in pt
 0   = cutuse  ! reject event if fails any (0) / all (1) jet pt cuts
#*********************************************************************
# Control the pt's of leptons sorted by pt                           *
#*********************************************************************
 0   = ptl1min ! minimum pt for the leading lepton in pt
 0   = ptl2min ! minimum pt for the second lepton in pt
 0   = ptl3min ! minimum pt for the third lepton in pt
 0   = ptl4min ! minimum pt for the fourth lepton in pt
 -1  = ptl1max ! maximum pt for the leading lepton in pt 
 -1  = ptl2max ! maximum pt for the second lepton in pt
 -1  = ptl3max ! maximum pt for the third lepton in pt
 -1  = ptl4max ! maximum pt for the fourth lepton in pt
#*********************************************************************
# Control the Ht(k)=Sum of k leading jets                            *
#*********************************************************************
 0   = htjmin ! minimum jet HT=Sum(jet pt)
 -1  = htjmax ! maximum jet HT=Sum(jet pt)
 0   = ihtmin  !inclusive Ht for all partons (including b)
 -1  = ihtmax  !inclusive Ht for all partons (including b)
 0   = ht2min ! minimum Ht for the two leading jets
 0   = ht3min ! minimum Ht for the three leading jets
 0   = ht4min ! minimum Ht for the four leading jets
 -1  = ht2max ! maximum Ht for the two leading jets
 -1  = ht3max ! maximum Ht for the three leading jets
 -1  = ht4max ! maximum Ht for the four leading jets
#***********************************************************************
# Photon-isolation cuts, according to hep-ph/9801442                   *
# When ptgmin=0, all the other parameters are ignored                  *
# When ptgmin>0, pta and draj are not going to be used                 *
#***********************************************************************
   0 = ptgmin ! Min photon transverse momentum
 0.4 = R0gamma ! Radius of isolation code
 1.0 = xn ! n parameter of eq.(3.4) in hep-ph/9801442
 1.0 = epsgamma ! epsilon_gamma parameter of eq.(3.4) in hep-ph/9801442
 .true. = isoEM ! isolate photons from EM energy (photons and leptons)
#*********************************************************************
# WBF cuts                                                           *
#*********************************************************************
 0   = xetamin ! minimum rapidity for two jets in the WBF case  
 0   = deltaeta ! minimum rapidity for two jets in the WBF case 
#*********************************************************************
# KT DURHAM CUT                                                      *
#*********************************************************************
 -1    =  ktdurham        
 0.4  =  dparameter 
#*********************************************************************
# maximal pdg code for quark to be considered as a light jet         *
# (otherwise b cuts are applied)                                     *
#*********************************************************************
 4 = maxjetflavor    ! Maximum jet pdg code
#*********************************************************************
# Jet measure cuts                                                   *
#*********************************************************************
 0   = xqcut   ! minimum kt jet measure between partons
#*********************************************************************
#
#*********************************************************************
# Store info for systematics studies                                 *
# WARNING: If use_syst is T, matched Pythia output is                *
#          meaningful ONLY if plotted taking matchscale              *
#          reweighting into account!                                 *
#*********************************************************************
   F  = use_syst      ! Enable systematics studies
#
#**************************************
# Parameter of the systematics study
#  will be used by SysCalc (if installed)
#**************************************                                  
#
0.5 1 2 = sys_scalefact  # factorization/renormalization scale factor
0.5 1 2 = sys_alpsfact  # \alpha_s emission scale factors
30 50 = sys_matchscale # variation of merging scale
# PDF sets and number of members (0 or none for all members).
CT10nlo.LHgrid = sys_pdf # matching scales
# MSTW2008nlo68cl.LHgrid 1  = sys_pdf
</MGRunCard>
<slha>
######################################################################
## PARAM_CARD AUTOMATICALY GENERATED BY MG5 FOLLOWING UFO MODEL   ####
######################################################################
##                                                                  ##
##  Width set on Auto will be computed following the information    ##
##        present in the decay.py files of the model.               ##
##        See  arXiv:1402.1178 for more details.                    ##
##                                                                  ##
######################################################################

###################################
## INFORMATION FOR MASS
###################################
Block mass 
    5 4.700000e+00 # MB 
    6 1.730000e+02 # MT 
   15 1.777000e+00 # MTA 
   23 9.118800e+01 # MZ 
   25 1.250000e+02 # MH 
## Dependent parameters, given by model restrictions.
## Those values should be edited following the 
## analytical expression. MG5 ignores those values 
## but they are important for interfacing the output of MG5
## to external program such as Pythia.
  1 0.000000 # d : 0.0 
  2 0.000000 # u : 0.0 
  3 0.000000 # s : 0.0 
  4 0.000000 # c : 0.0 
  11 0.000000 # e- : 0.0 
  12 0.000000 # ve : 0.0 
  13 0.000000 # mu- : 0.0 
  14 0.000000 # vm : 0.0 
  16 0.000000 # vt : 0.0 
  21 0.000000 # g : 0.0 
  22 0.000000 # a : 0.0 
  24 80.419002 # w+ : cmath.sqrt(MZ__exp__2/2. + cmath.sqrt(MZ__exp__4/4. - (aEW*cmath.pi*MZ__exp__2)/(Gf*sqrt__2))) 

###################################
## INFORMATION FOR SMINPUTS
###################################
Block sminputs 
    1 1.325070e+02 # aEWM1 
    2 1.166390e-05 # Gf 
    3 1.180000e-01 # aS 

###################################
## INFORMATION FOR YUKAWA
###################################
Block yukawa 
    5 4.700000e+00 # ymb 
    6 1.730000e+02 # ymt 
   15 1.777000e+00 # ymtau 

###################################
## INFORMATION FOR DECAY
###################################
DECAY   6 1.491500e+00 # WT 
DECAY  23 2.441404e+00 # WZ 
DECAY  24 2.047600e+00 # WW 
DECAY  25 6.382339e-03 # WH 
## Dependent parameters, given by model restrictions.
## Those values should be edited following the 
## analytical expression. MG5 ignores those values 
## but they are important for interfacing the output of MG5
## to external program such as Pythia.
DECAY  1 0.000000 # d : 0.0 
DECAY  2 0.000000 # u : 0.0 
DECAY  3 0.000000 # s : 0.0 
DECAY  4 0.000000 # c : 0.0 
DECAY  5 0.000000 # b : 0.0 
DECAY  11 0.000000 # e- : 0.0 
DECAY  12 0.000000 # ve : 0.0 
DECAY  13 0.000000 # mu- : 0.0 
DECAY  14 0.000000 # vm : 0.0 
DECAY  15 0.000000 # ta- : 0.0 
DECAY  16 0.000000 # vt : 0.0 
DECAY  21 0.000000 # g : 0.0 
DECAY  22 0.000000 # a : 0.0
</slha>
## END BANNER##
<MGGenerationInfo>
#  Number of Events        :         2000
#  Integrated weight (pb)  :  0.90017E-02
#  Truncated wgt (pb)      :  0.10464E-04
#  Unit wgt                :  0.45008E-05
</MGGenerationInfo>
</header>
<init>
     2212     2212  0.65000000000E+04  0.65000000000E+04 0 0  200400  200400 3   1
  0.89729406295E-02  0.53700882115E-04  0.45008500000E-05   0
<generator name='MadGraph5_aMC@NLO' version='2.1.2'>please cite 1405.0301 </generator>
</init>
<event>
 6   0  0.4500850E-05  0.4869489E+03  0.7546771E-02  0.1026105E+00
        2   -1    0    0  502    0  0.00000000000E+00  0.00000000000E+00  0.13232075643E+04  0.13232075643E+04  0.00000000000E+00 0. -1.
       -2   -1    0    0    0  501  0.00000000000E+00  0.00000000000E+00 -0.17085535414E+03  0.17085535414E+03  0.00000000000E+00 0.  1.
        6    1    1    2  502    0  0.19044262515E+02 -0.93606910482E+02  0.70869997042E+03  0.73573744345E+03  0.17300000000E+03 0. -1.
       -6    1    1    2    0  503  0.10093371226E+03  0.11120444824E+03  0.24711526903E+03  0.33697032476E+03  0.17300000000E+03 0. -1.
        6    1    1    2  503    0 -0.37619503081E+02 -0.73462242871E+01  0.65094231456E+02  0.18877354950E+03  0.17300000000E+03 0.  1.
       -6    1    1    2    0  501 -0.82358471690E+02 -0.10251313472E+02  0.13144273922E+03  0.23258160069E+03  0.17300000000E+03 0.  1.
</event>
<event>
 6   0  0.4500850E-05  0.3460047E+03  0.7546771E-02  0.1079492E+00
       21   -1    0    0  501  503  0.00000000000E+00  0.00000000000E+00  0.64502090291E+03  0.64502090291E+03  0.00000000000E+00 0. -1.
       21   -1    0    0  502  504  0.00000000000E+00  0.00000000000E+00 -0.34907539420E+03  0.34907539420E+03  0.00000000000E+00 0. -1.
        6    1    1    2  501    0  0.90540807417E+02  0.10086381338E+03  0.11319366361E+03  0.24721033987E+03  0.17300000000E+03 0. -1.
       -6    1    1    2    0  503 -0.46776020951E+02 -0.23161775879E+03  0.21074583024E+03  0.36080131276E+03  0.17300000000E+03 0. -1.
        6    1    1    2  502    0 -0.31616249189E+02  0.56227191401E+02 -0.61017920874E+02  0.19445634712E+03  0.17300000000E+03 0. -1.
       -6    1    1    2    0  504 -0.12148537277E+02  0.74526754006E+02  0.33023935726E+02  0.19162829737E+03  0.17300000000E+03 0. -1.
</event>
<event>
 6   0  0.4500850E-05  0.4649544E+03  0.7546771E-02  0.1029242E+00
       21   -1    0    0  504  503  0.00000000000E+00  0.00000000000E+00  0.21174269657E+04  0.21174269657E+04  0.00000000000E+00 0.  1.
       21   -1    0    0  501  504  0.00000000000E+00  0.00000000000E+00 -0.26295618762E+03  0.26295618762E+03  0.00000000000E+00 0.  1.
        6    1    1    2  501    0 -0.33686892196E+03  0.83861217973E+02  0.36253571811E+03  0.53091856378E+03  0.17300000000E+03 0.  1.
       -6    1    1    2    0  502  0.26303788416E+03  0.12539930055E+03  0.26366605193E+03  0.42937477804E+03  0.17300000000E+03 0.  1.
        6    1    1    2  502    0  0.17569348783E+03 -0.31049343474E+03  0.10807288957E+04  0.11511638983E+04  0.17300000000E+03 0. -1.
       -6    1    1    2    0  503 -0.10186245003E+03  0.10123291621E+03  0.14754011233E+03  0.26892591321E+03  0.17300000000E+03 0. -1.
</event>
<event>
 6   0  0.4500850E-05  0.2309153E+03  0.7546771E-02  0.1126560E+00
       21   -1    0    0  502  503  0.00000000000E+00  0.00000000000E+00  0.75942482436E+03  0.75942482436E+03  0.00000000000E+00 0. -1.
       21   -1    0    0  501  504  0.00000000000E+00  0.00000000000E+00 -0.49935480084E+03  0.49935480084E+03  0.00000000000E+00 0. -1.
        6    1    1    2  501    0 -0.46351017598E+01 -0.19896664159E+03 -0.23542042009E+03  0.35349820767E+03  0.17300000000E+03 0. -1.
       -6    1    1    2    0  504 -0.17425924400E+03  0.22364129719E+02  0.15542103054E+03  0.29146378017E+03  0.17300000000E+03 0. -1.
        6    1    1    2  502    0 -0.19115370588E+02  0.11321086539E+03  0.42950564352E+02  0.21202794253E+03  0.17300000000E+03 0.  1.
       -6    1    1    2    0  503  0.19800971635E+03  0.63391646476E+02  0.29711884871E+03  0.40178969483E+03  0.17300000000E+03 0. -1.
</event>
<event>
 6   0  0.4500850E-05  0.3703426E+03  0.7546771E-02  0.1074656E+00
       21   -1    0    0  501  503  0.00000000000E+00  0.00000000000E+00  0.16272817178E+04  0.16272817178E+04  0.00000000000E+00 0.  1.
       21   -1    0    0  502  504  0.00000000000E+00  0.00000000000E+00 -0.69042773653E+03  0.69042773653E+03  0.00000000000E+00 0. -1.
        6    1    1    2  501    0 -0.34542995657E+03  0.38204146198E+03  0.61056499190E+02  0.54674896402E+03  0.17300000000E+03 0. -1.
       -6    1    1    2    0  504  0.28030973870E+03 -0.53075615094E+02 -0.28678232368E+03  0.43995871591E+03  0.17300000000E+03 0. -1.
        6    1    1    2  502    0 -0.65524399655E+02  0.39468140299E+02  0.18753169458E+03  0.26636125379E+03  0.17300000000E+03 0.  1.
       -6    1    1    2    0  503  0.13064461752E+03 -0.36843398718E+03  0.97504811113E+03  0.10646405206E+04  0.17300000000E+03 0.  1.
</event>
<event>
 6   0  0.4500850E-05  0.2389703E+03  0.7546771E-02  0.1121087E+00
       21   -1    0    0  501  503  0.00000000000E+00  0.00000000000E+00  0.16959966009E+04  0.16959966009E+04  0.00000000000E+00 0.  1.
       21   -1    0    0  503  504  0.00000000000E+00  0.00000000000E+00 -0.30621028184E+03  0.30621028184E+03  0.00000000000E+00 0.  1.
        6    1    1    2  501    0  0.17978432240E+03  0.17226647501E+02  0.60071968024E+03  0.65070138635E+03  0.17300000000E+03 0.  1.
       -6    1    1    2    0  504 -0.27440127215E+03 -0.75124900753E+02  0.55148271370E+02  0.33750576396E+03  0.17300000000E+03 0.  1.
        6    1    1    2  502    0  0.11357331147E+03 -0.54758735692E+02 -0.35629196732E+02  0.21701579637E+03  0.17300000000E+03 0. -1.
       -6    1    1    2    0  502 -0.18956361721E+02  0.11265698894E+03  0.76954756415E+03  0.79698393603E+03  0.17300000000E+03 0.  1.
</event>
<event>
 6   0  0.4500850E-05  0.3851658E+03  0.7546771E-02  0.1070184E+00
       21   -1    0    0  501  503  0.00000000000E+00  0.00000000000E+00  0.45696445454E+03  0.45696445454E+03  0.00000000000E+00 0.  1.
       21   -1    0    0  503  504  0.00000000000E+00  0.00000000000E+00 -0.16230807766E+04  0.16230807766E+04  0.00000000000E+00 0.  1.
        6    1    1    2  501    0 -0.11834559903E+03 -0.16121483195E+03  0.12349524839E+03  0.29184924057E+03  0.17300000000E+03 0.  1.
       -6    1    1    2    0  502 -0.10009541782E+03 -0.33000222041E+02  0.47357715175E+02  0.20803812273E+03  0.17300000000E+03 0.  1.
        6    1    1    2  502    0  0.17490289301E+03  0.20917357797E+03 -0.13616755906E+04  0.13994406103E+04  0.17300000000E+03 0.  1.
       -6    1    1    2    0  504  0.43538123836E+02 -0.14958523987E+02  0.24706304982E+02  0.18071725754E+03  0.17300000000E+03 0.  1.
</event>
<event>
 6   0  0.4500850E-05  0.2448390E+03  0.7546771E-02  0.1122820E+00
       21   -1    0    0  502  503  0.00000000000E+00  0.00000000000E+00  0.17086915604E+04  0.17086915604E+04  0.00000000000E+00 0. -1.
       21   -1    0    0  501  504  0.00000000000E+00  0.00000000000E+00 -0.83466592387E+03  0.83466592387E+03  0.00000000000E+00 0. -1.
        6    1    1    2  501    0 -0.84862711807E+02 -0.82490649848E+02  0.46043232217E+03  0.50589851795E+03  0.17300000000E+03 0. -1.
       -6    1    1    2    0  504  0.16335126677E+03  0.39651373325E+02  0.11873306057E+03  0.26885387748E+03  0.17300000000E+03 0.  1.
        6    1    1    2  502    0  0.13542196991E+03 -0.10518633949E+03 -0.69192500201E+03  0.73354787462E+03  0.17300000000E+03 0. -1.
       -6    1    1    2    0  503 -0.21391052487E+03  0.14802561601E+03  0.98678525578E+03  0.10350572142E+04  0.17300000000E+03 0. -1.
</event>
<event>
 6   0  0.4500850E-05  0.2610171E+03  0.7546771E-02  0.1119506E+00
       21   -1    0    0  504  503  0.00000000000E+00  0.00000000000E+00  0.13382356137E+04  0.13382356137E+04  0.00000000000E+00 0.  1.
       21   -1    0    0  501  504  0.00000000000E+00  0.00000000000E+00 -0.33944377096E+03  0.33944377096E+03  0.00000000000E+00 0.  1.
        6    1    1    2  501    0 -0.22520684446E+03  0.13917030692E+03 -0.12727568496E+03  0.34090262114E+03  0.17300000000E+03 0.  1.
       -6    1    1    2    0  502 -0.14516702497E+02 -0.54206992033E+02  0.43547457806E+03  0.47192821570E+03  0.17300000000E+03 0.  1.
        6    1    1    2  502    0  0.20738751131E+03  0.72166974842E+02  0.31354457771E+03  0.42006767826E+03  0.17300000000E+03 0.  1.
       -6    1    1    2    0  503  0.32336035649E+02 -0.15713028973E+03  0.37704837198E+03  0.44478086960E+03  0.17300000000E+03 0. -1.
</event>
<event>
 6   0  0.4500850E-05  0.4656764E+03  0.7546771E-02  0.1050856E+00
       21   -1    0    0  501  503  0.00000000000E+00  0.00000000000E+00  0.69502451019E+03  0.69502451019E+03  0.00000000000E+00 0. -1.
       21   -1    0    0  502  504  0.00000000000E+00  0.00000000000E+00 -0.11749828880E+04  0.11749828880E+04  0.00000000000E+00 0.  1.
        6    1    1    2  501    0 -0.11108080010E+03 -0.23564754491E+02  0.84133774534E+02  0.22338695983E+03  0.17300000000E+03 0.  1.
       -6    1    1    2    0  503 -0.46866912310E+03 -0.80231645233E+02 -0.43618489195E+03  0.66803751677E+03  0.17300000000E+03 0.  1.
        6    1    1    2  502    0  0.36929560159E+03  0.15853235109E+03 -0.39770312609E+03  0.59127702830E+03  0.17300000000E+03 0. -1.
       -6    1    1    2    0  504  0.21045432161E+03 -0.54735951368E+02  0.26979586568E+03  0.38730589331E+03  0.17300000000E+03 0. -1.
</event>
<event>
 6   0  0.4500850E-05  0.2654207E+03  0.7546771E-02  0.1114042E+00
       21   -1    0    0  504  503  0.00000000000E+00  0.00000000000E+00  0.50365299395E+03  0.50365299395E+03  0.00000000000E+00 0. -1.
       21   -1    0    0  502  504  0.00000000000E+00  0.00000000000E+00 -0.11174753306E+04  0.11174753306E+04  0.00000000000E+00 0. -1.
        6    1    1    2  501    0 -0.10681972268E+03 -0.21237359157E+03 -0.23260703656E+03  0.37489735797E+03  0.17300000000E+03 0. -1.
       -6    1    1    2    0  503 -0.14642366708E+03  0.69774348517E+02  0.17711260593E+03  0.29598348801E+03  0.17300000000E+03 0.  1.
        6    1    1    2  502    0  0.38055540580E+02 -0.33285675682E+02 -0.59418627945E+03  0.62092068339E+03  0.17300000000E+03 0. -1.
       -6    1    1    2    0  501  0.21518784918E+03  0.17588491874E+03  0.35858373443E+02  0.32932679518E+03  0.17300000000E+03 0. -1.
</event>
<event>
 6   0  0.4500850E-05  0.2114880E+03  0.7546771E-02  0.1148708E+00
       21   -1    0    0  504  503  0.00000000000E+00  0.00000000000E+00  0.11739991071E+04  0.11739991071E+04  0.00000000000E+00 0.  1.
       21   -1    0    0  502  504  0.00000000000E+00  0.00000000000E+00 -0.47245540175E+03  0.47245540175E+03  0.00000000000E+00 0. -1.
        6    1    1    2  501    0 -0.10729805896E+02  0.78653191183E+00  0.34121427453E+03  0.38271651193E+03  0.17300000000E+03 0.  1.
       -6    1    1    2    0  501  0.18649855164E+02 -0.15743837814E+03  0.31977136278E+03  0.39663255598E+03  0.17300000000E+03 0.  1.
        6    1    1    2  502    0 -0.98735368879E+02  0.72355776442E+02 -0.35758208713E+03  0.41566570762E+03  0.17300000000E+03 0. -1.
       -6    1    1    2    0  503  0.90815319611E+02  0.84296069789E+02  0.39814015521E+03  0.45143973335E+03  0.17300000000E+03 0.  1.
</event>
<event>
 6   0  0.4500850E-05  0.3536983E+03  0.7546771E-02  0.1061107E+00
        1   -1    0    0  503    0  0.00000000000E+00  0.00000000000E+00  0.10236190334E+04  0.10236190334E+04  0.00000000000E+00 0.  1.
       -1   -1    0    0    0  501  0.00000000000E+00  0.00000000000E+00 -0.29159031987E+03  0.29159031987E+03  0.00000000000E+00 0. -1.
        6    1    1    2  502    0  0.87199984908E+02  0.47117281914E+02  0.23478292880E+03  0.30801931641E+03  0.17300000000E+03 0.  1.
       -6    1    1    2    0  502 -0.37897808106E+02  0.38550702392E+02  0.35516251585E+03  0.39873777496E+03  0.17300000000E+03 0. -1.
        6    1    1    2  503    0  0.50270627129E+02 -0.12928953588E+03  0.28353231519E+03  0.35994790428E+03  0.17300000000E+03 0.  1.
       -6    1    1    2    0  501 -0.99572803932E+02  0.43621551573E+02 -0.14144904633E+03  0.24850435761E+03  0.17300000000E+03 0. -1.
</event>
<event>
 6   0  0.4500850E-05  0.2699904E+03  0.7546771E-02  0.1109339E+00
       21   -1    0    0  501  503  0.00000000000E+00  0.00000000000E+00  0.20827666004E+03  0.20827666004E+03  0.00000000000E+00 0.  1.
       21   -1    0    0  502  504  0.00000000000E+00  0.00000000000E+00 -0.17087866966E+04  0.17087866966E+04  0.00000000000E+00 0. -1.
        6    1    1    2  501    0 -0.16335938584E+03  0.13669857778E+03 -0.23154266923E+03  0.35904567646E+03  0.17300000000E+03 0. -1.
       -6    1    1    2    0  504  0.18828958630E+03  0.19724122638E+03 -0.29947405705E+03  0.44042113998E+03  0.17300000000E+03 0.  1.
        6    1    1    2  502    0  0.24233584284E+02 -0.20806192417E+03 -0.78552715872E+03  0.83117925141E+03  0.17300000000E+03 0. -1.
       -6    1    1    2    0  503 -0.49163784742E+02 -0.12587787999E+03 -0.18396615158E+03  0.28641728881E+03  0.17300000000E+03 0.  1.
</event>
<event>
 6   0  0.4500850E-05  0.5639790E+03  0.7546771E-02  0.1033519E+00
       21   -1    0    0  501  503  0.00000000000E+00  0.00000000000E+00  0.15567869156E+04  0.15567869156E+04  0.00000000000E+00 0.  1.
       21   -1    0    0  502  504  0.00000000000E+00  0.00000000000E+00 -0.77303070121E+03  0.77303070121E+03  0.00000000000E+00 0.  1.
        6    1    1    2  501    0  0.38034690683E+02 -0.75390693268E+02  0.12003741727E+04  0.12157127740E+04  0.17300000000E+03 0.  1.
       -6    1    1    2    0  503 -0.37410531399E+02  0.28477034879E+03 -0.26520236945E+03  0.42749853354E+03  0.17300000000E+03 0.  1.
        6    1    1    2  502    0 -0.58341922835E+02  0.16800386487E+03 -0.84828057899E+02  0.26220960695E+03  0.17300000000E+03 0.  1.
       -6    1    1    2    0  504  0.57717763551E+02 -0.37738352040E+03 -0.66587530946E+02  0.42439670236E+03  0.17300000000E+03 0.  1.
</event>
<event>
 6   0  0.4500850E-05  0.2529855E+03  0.7546771E-02  0.1125275E+00
       21   -1    0    0  504  503  0.00000000000E+00  0.00000000000E+00  0.75077101167E+03  0.75077101167E+03  0.00000000000E+00 0. -1.
       21   -1    0    0  502  504  0.00000000000E+00  0.00000000000E+00 -0.96240731977E+03  0.96240731977E+03  0.00000000000E+00 0.  1.
        6    1    1    2  501    0  0.10945789954E+03 -0.86247802025E+02  0.25262199575E+03  0.33640241952E+03  0.17300000000E+03 0.  1.
       -6    1    1    2    0  503 -0.16792735963E+03  0.19648769229E+03  0.29845712780E+03  0.43105993606E+03  0.17300000000E+03 0. -1.
        6    1    1    2  502    0  0.92618532692E+02 -0.13960342516E+03 -0.72373290112E+03  0.76274872735E+03  0.17300000000E+03 0.  1.
       -6    1    1    2    0  501 -0.34149072596E+02  0.29363534892E+02 -0.38982530533E+02  0.18296724851E+03  0.17300000000E+03 0. -1.
</event>
<event>
 6   0  0.4500850E-05  0.5490432E+03  0.7546771E-02  0.1026395E+00
       21   -1    0    0  504  503  0.00000000000E+00  0.00000000000E+00  0.18873786208E+03  0.18873786208E+03  0.00000000000E+00 0.  1.
       21   -1    0    0  502  504  0.00000000000E+00  0.00000000000E+00 -0.26465810335E+04  0.26465810335E+04  0.00000000000E+00 0.  1.
        6    1    1    2  501    0  0.30724125354E+03  0.54193720544E+02 -0.86758277841E+03  0.93806344381E+03  0.17300000000E+03 0.  1.
       -6    1    1    2    0  503  0.21843238648E+03  0.12206515142E+03 -0.56547836806E+03  0.64211166739E+03  0.17300000000E+03 0. -1.
        6    1    1    2  502    0 -0.11773526436E+03 -0.10952573125E+03 -0.17329945577E+03  0.29294910761E+03  0.17300000000E+03 0.  1.
       -6    1    1    2    0  501 -0.40793837566E+03 -0.66733140714E+02 -0.85148256918E+03  0.96219467677E+03  0.17300000000E+03 0. -1.
</event>
<event>
 6   0  0.4500850E-05  0.4344732E+03  0.7546771E-02  0.1043730E+00
       21   -1    0    0  504  503  0.00000000000E+00  0.00000000000E+00  0.13735987621E+04  0.13735987621E+04  0.00000000000E+00 0.  1.
       21   -1    0    0  502  504  0.00000000000E+00  0.00000000000E+00 -0.14531386673E+04  0.14531386673E+04  0.00000000000E+00 0.  1.
        6    1    1    2  501    0  0.54037220893E+02  0.53376452524E+02 -0.29094439466E+02  0.19116629759E+03  0.17300000000E+03 0. -1.
       -6    1    1    2    0  501 -0.68620066296E+01  0.11288419030E+03 -0.67375716167E+02  0.21739000594E+03  0.17300000000E+03 0.  1.
        6    1    1    2  502    0  0.17423605540E+03  0.12383285574E+03 -0.11504787650E+04  0.11828876395E+04  0.17300000000E+03 0.  1.
       -6    1    1    2    0  503 -0.22141126966E+03 -0.29009349857E+03  0.11674090153E+04  0.12352934863E+04  0.17300000000E+03 0.  1.
</event>
<event>
 6   0  0.4500850E-05  0.3717096E+03  0.7546771E-02  0.1079560E+00
       21   -1    0    0  504  503  0.00000000000E+00  0.00000000000E+00  0.38225383089E+03  0.38225383089E+03  0.00000000000E+00 0.  1.
       21   -1    0    0  502  504  0.00000000000E+00  0.00000000000E+00 -0.10441544604E+04  0.10441544604E+04  0.00000000000E+00 0.  1.
        6    1    1    2  501    0  0.36156196293E+02 -0.35525836857E+03 -0.16004287366E+03  0.42785336317E+03  0.17300000000E+03 0. -1.
       -6    1    1    2    0  503 -0.24898155499E+03  0.23850421312E+03 -0.11158613861E+03  0.40156760419E+03  0.17300000000E+03 0.  1.
        6    1    1    2  502    0  0.28982122027E+02  0.54453244006E+02 -0.21810247385E+03  0.28513647308E+03  0.17300000000E+03 0. -1.
       -6    1    1    2    0  501  0.18384323667E+03  0.62300911442E+02 -0.17216914339E+03  0.31185085084E+03  0.17300000000E+03 0.  1.
</event>
<event>
 6   0  0.4500850E-05  0.2240054E+03  0.7546771E-02  0.1134991E+00
       21   -1    0    0  501  503  0.00000000000E+00  0.00000000000E+00  0.10621507698E+03  0.10621507698E+03  0.00000000000E+00 0.  1.
       21   -1    0    0  502  504  0.00000000000E+00  0.00000000000E+00 -0.32636770021E+04  0.32636770021E+04  0.00000000000E+00 0.  1.
        6    1    1    2  501    0 -0.63043081855E+01 -0.82501188444E+02 -0.92301966863E+03  0.94273034272E+03  0.17300000000E+03 0.  1.
       -6    1    1    2    0  503  0.16129843983E+02 -0.19400236273E+02 -0.12698998537E+03  0.21608331129E+03  0.17300000000E+03 0.  1.
        6    1    1    2  502    0  0.10158101514E+03 -0.12769027029E+03 -0.32812771700E+03  0.40524104732E+03  0.17300000000E+03 0. -1.
       -6    1    1    2    0  504 -0.11140655094E+03  0.22959169501E+03 -0.17793245541E+04  0.18058373778E+04  0.17300000000E+03 0. -1.
</event>
<event>
 6   0  0.4500850E-05  0.2153707E+03  0.7546771E-02  0.1140013E+00
       21   -1    0    0  502  503  0.00000000000E+00  0.00000000000E+00  0.58250666940E+03  0.58250666940E+03  0.00000000000E+00 0.  1.
       21   -1    0    0  501  504  0.00000000000E+00  0.00000000000E+00 -0.53057975878E+03  0.53057975878E+03  0.00000000000E+00 0. -1.
        6    1    1    2  501    0  0.19438595307E+02  0.30448811060E+02 -0.15603356278E+03  0.23575508859E+03  0.17300000000E+03 0. -1.
       -6    1    1    2    0  503 -0.56323197172E+02 -0.20163462114E+03 -0.15537551643E+03  0.31288875673E+03  0.17300000000E+03 0. -1.
        6    1    1    2  502    0  0.85882914977E+02  0.11774279057E+03  0.27789494885E+03  0.35832086517E+03  0.17300000000E+03 0.  1.
       -6    1    1    2    0  504 -0.48998313112E+02  0.53443019511E+02  0.85441040974E+02  0.20612171769E+03  0.17300000000E+03 0. -1.
</event>
<event>
 6   0  0.4500850E-05  0.3662304E+03  0.7546771E-02  0.1062316E+00
       21   -1    0    0  504  503  0.00000000000E+00  0.00000000000E+00  0.68408028699E+03  0.68408028699E+03  0.00000000000E+00 0. -1.
       21   -1    0    0  501  504  0.00000000000E+00  0.00000000000E+00 -0.25105762320E+04  0.25105762320E+04  0.00000000000E+00 0. -1.
        6    1    1    2  501    0  0.25038712808E+03 -0.28086479910E+03 -0.77634762829E+03  0.87989964725E+03  0.17300000000E+03 0. -1.
       -6    1    1    2    0  503 -0.18172315355E+03 -0.20860884809E+03  0.51073432244E+03  0.60606889390E+03  0.17300000000E+03 0. -1.
        6    1    1    2  502    0  0.13212608085E+03  0.16068180067E+03 -0.67825820904E+03  0.73023225102E+03  0.17300000000E+03 0.  1.
       -6    1    1    2    0  502 -0.20079005538E+03  0.32879184652E+03 -0.88262443011E+03  0.97845572680E+03  0.17300000000E+03 0. -1.
</event>
<event>
 6   0  0.4500850E-05  0.2773297E+03  0.7546771E-02  0.1103422E+00
       21   -1    0    0  501  503  0.00000000000E+00  0.00000000000E+00  0.10828657428E+04  0.10828657428E+04  0.00000000000E+00 0.  1.
       21   -1    0    0  503  504  0.00000000000E+00  0.00000000000E+00 -0.60164108779E+03  0.60164108779E+03  0.00000000000E+00 0.  1.
        6    1    1    2  501    0 -0.32567964190E+03  0.24661034628E+03  0.37259771938E+03  0.57934614224E+03  0.17300000000E+03 0.  1.
       -6    1    1    2    0  504  0.69838030382E+02 -0.12723948714E+03 -0.37227761816E+03  0.43541573531E+03  0.17300000000E+03 0.  1.
        6    1    1    2  502    0  0.17116901602E+03 -0.10504153801E+03  0.21614661017E+03  0.34202472695E+03  0.17300000000E+03 0. -1.
       -6    1    1    2    0  502  0.84672595498E+02 -0.14329321122E+02  0.26475794359E+03  0.32772022605E+03  0.17300000000E+03 0. -1.
</event>
<event>
 6   0  0.4500850E-05  0.3074409E+03  0.7546771E-02  0.1086120E+00
       21   -1    0    0  502  503  0.00000000000E+00  0.00000000000E+00  0.12203542308E+04  0.12203542308E+04  0.00000000000E+00 0. -1.
       21   -1    0    0  501  504  0.00000000000E+00  0.00000000000E+00 -0.84027187920E+03  0.84027187920E+03  0.00000000000E+00 0.  1.
        6    1    1    2  501    0  0.88031568865E+02  0.10330463590E+02  0.31411903614E+03  0.36939957290E+03  0.17300000000E+03 0.  1.
       -6    1    1    2    0  503  0.25300809878E+03 -0.24099231569E+03  0.60390622253E+03  0.71883386111E+03  0.17300000000E+03 0. -1.
        6    1    1    2  502    0 -0.10258817019E+03 -0.10388351854E+03  0.52687556094E+02  0.23242438911E+03  0.17300000000E+03 0. -1.
       -6    1    1    2    0  504 -0.23845149746E+03  0.33454537064E+03 -0.59063046312E+03  0.73996828691E+03  0.17300000000E+03 0.  1.
</event>
<event>
 6   0  0.4500850E-05  0.2515797E+03  0.7546771E-02  0.1112588E+00
       21   -1    0    0  502  503  0.00000000000E+00  0.00000000000E+00  0.53166179662E+03  0.53166179662E+03  0.00000000000E+00 0. -1.
       21   -1    0    0  501  504  0.00000000000E+00  0.00000000000E+00 -0.11253119174E+04  0.11253119174E+04  0.00000000000E+00 0.  1.
        6    1    1    2  501    0  0.16907253182E+02 -0.11321080565E+03  0.16272364141E+03  0.26364848795E+03  0.17300000000E+03 0. -1.
       -6    1    1    2    0  503 -0.20702138524E+03 -0.10137653261E+03  0.13027333960E+03  0.31628341456E+03  0.17300000000E+03 0.  1.
        6    1    1    2  502    0  0.50340261543E+02  0.13140399621E+03 -0.81207197131E+02  0.23732838224E+03  0.17300000000E+03 0. -1.
       -6    1    1    2    0  504  0.13977387052E+03  0.83183342043E+02 -0.80543990461E+03  0.83971342922E+03  0.17300000000E+03 0.  1.
</event>
<event>
 6   0  0.4500850E-05  0.7725560E+03  0.7546771E-02  0.9600613E-01
        2   -1    0    0  503    0  0.00000000000E+00  0.00000000000E+00  0.32395203193E+03  0.32395203193E+03  0.00000000000E+00 0. -1.
       -2   -1    0    0    0  501  0.00000000000E+00  0.00000000000E+00 -0.27205551980E+04  0.27205551980E+04  0.00000000000E+00 0.  1.
        6    1    1    2  502    0 -0.99439886920E+01 -0.24554945798E+03 -0.25991514176E+03  0.39733902419E+03  0.17300000000E+03 0. -1.
       -6    1    1    2    0  502  0.22893429219E+02 -0.31591392113E+03 -0.14316133322E+04  0.14764049064E+04  0.17300000000E+03 0.  1.
        6    1    1    2  503    0  0.78248200320E+02 -0.26074123280E+01 -0.50757504183E+03  0.54193265499E+03  0.17300000000E+03 0.  1.
       -6    1    1    2    0  501 -0.91197640847E+02  0.56407079144E+03 -0.19749965028E+03  0.62883064438E+03  0.17300000000E+03 0. -1.
</event>
<event>
 6   0  0.4500850E-05  0.2792684E+03  0.7546771E-02  0.1097027E+00
       21   -1    0    0  504  503  0.00000000000E+00  0.00000000000E+00  0.13925495671E+04  0.13925495671E+04  0.00000000000E+00 0.  1.
       21   -1    0    0  502  504  0.00000000000E+00  0.00000000000E+00 -0.73217979693E+03  0.73217979693E+03  0.00000000000E+00 0.  1.
        6    1    1    2  501    0 -0.21171434624E+03  0.49900170619E+01  0.65477166135E+03  0.70957930718E+03  0.17300000000E+03 0.  1.
       -6    1    1    2    0  501 -0.20239100688E+03 -0.58073492028E+02 -0.40397129623E+03  0.48729504238E+03  0.17300000000E+03 0.  1.
        6    1    1    2  502    0  0.21140112762E+03 -0.14804159949E+03 -0.93153002277E+02  0.32436589490E+03  0.17300000000E+03 0. -1.
       -6    1    1    2    0  503  0.20270422551E+03  0.20112507446E+03  0.50272240730E+03  0.60348911955E+03  0.17300000000E+03 0.  1.
</event>
<event>
 6   0  0.4500850E-05  0.3779028E+03  0.7546771E-02  0.1061168E+00
       21   -1    0    0  504  503  0.00000000000E+00  0.00000000000E+00  0.68274082310E+03  0.68274082310E+03  0.00000000000E+00 0.  1.
       21   -1    0    0  501  504  0.00000000000E+00  0.00000000000E+00 -0.10193384622E+04  0.10193384622E+04  0.00000000000E+00 0.  1.
        6    1    1    2  501    0  0.10131383975E+03  0.64893972150E+02 -0.24270976726E+03  0.32142301235E+03  0.17300000000E+03 0. -1.
       -6    1    1    2    0  502  0.15323361163E+03  0.85646374128E+02 -0.11535631096E+03  0.27212482359E+03  0.17300000000E+03 0.  1.
        6    1    1    2  502    0 -0.26378142846E+03  0.17226682102E+02 -0.46697167941E+03  0.56379867856E+03  0.17300000000E+03 0.  1.
       -6    1    1    2    0  503  0.92339770905E+01 -0.16776702838E+03  0.48844011856E+03  0.54473277078E+03  0.17300000000E+03 0.  1.
</event>
<event>
 6   0  0.4500850E-05  0.3259212E+03  0.7546771E-02  0.1084401E+00
       21   -1    0    0  502  503  0.00000000000E+00  0.00000000000E+00  0.73517622976E+03  0.73517622976E+03  0.00000000000E+00 0. -1.
       21   -1    0    0  501  504  0.00000000000E+00  0.00000000000E+00 -0.11700071304E+04  0.11700071304E+04  0.00000000000E+00 0. -1.
        6    1    1    2  501    0 -0.24832583466E+03  0.13403629400E+03  0.22641360390E+03  0.40102813903E+03  0.17300000000E+03 0.  1.
       -6    1    1    2    0  503 -0.12782944216E+03 -0.10477558692E+03  0.38375589322E+02  0.24232204966E+03  0.17300000000E+03 0. -1.
        6    1    1    2  502    0  0.17204325520E+03  0.15708206220E+03  0.16776837913E+03  0.33518485192E+03  0.17300000000E+03 0.  1.
       -6    1    1    2    0  504  0.20411202162E+03 -0.18634276929E+03 -0.86738847294E+03  0.92664831950E+03  0.17300000000E+03 0. -1.
</event>
<event>
 6   0  0.4500850E-05  0.2585608E+03  0.7546771E-02  0.1118504E+00
       21   -1    0    0  501  503  0.00000000000E+00  0.00000000000E+00  0.59438008753E+03  0.59438008753E+03  0.00000000000E+00 0. -1.
       21   -1    0    0  502  504  0.00000000000E+00  0.00000000000E+00 -0.12597213746E+04  0.12597213746E+04  0.00000000000E+00 0. -1.
        6    1    1    2  501    0 -0.65730469779E+02  0.25108327969E+03 -0.18124750621E+02  0.31244329819E+03  0.17300000000E+03 0. -1.
       -6    1    1    2    0  503 -0.77944490359E+02 -0.25905452759E+02  0.11022193315E+03  0.22096223797E+03  0.17300000000E+03 0.  1.
        6    1    1    2  502    0 -0.28967094524E+02 -0.16563476242E+03  0.21076256465E+03  0.32034953682E+03  0.17300000000E+03 0. -1.
       -6    1    1    2    0  504  0.17264205466E+03 -0.59543064514E+02 -0.96820103420E+03  0.10003463891E+04  0.17300000000E+03 0. -1.
</event>
<event>
 6   0  0.4500850E-05  0.3076526E+03  0.7546771E-02  0.1084706E+00
       21   -1    0    0  502  503  0.00000000000E+00  0.00000000000E+00  0.80088473585E+03  0.80088473585E+03  0.00000000000E+00 0. -1.
       21   -1    0    0  503  504  0.00000000000E+00  0.00000000000E+00 -0.14004955547E+04  0.14004955547E+04  0.00000000000E+00 0.  1.
        6    1    1    2  501    0  0.22328465796E+03 -0.21055071933E+03 -0.17510230763E+03  0.39341766868E+03  0.17300000000E+03 0.  1.
       -6    1    1    2    0  504 -0.21478639259E+03  0.11619312474E+03 -0.86874158236E+03  0.91884436855E+03  0.17300000000E+03 0.  1.
        6    1    1    2  502    0  0.24351981395E+02 -0.22156638325E+03  0.44561115310E+03  0.52743054609E+03  0.17300000000E+03 0.  1.
       -6    1    1    2    0  501 -0.32850246762E+02  0.31592397784E+03 -0.13780820035E+01  0.36168770727E+03  0.17300000000E+03 0. -1.
</event>
<event>
 6   0  0.4500850E-05  0.2162327E+03  0.7546771E-02  0.1137507E+00
       21   -1    0    0  504  503  0.00000000000E+00  0.00000000000E+00  0.83693688861E+02  0.83693688861E+02  0.00000000000E+00 0. -1.
       21   -1    0    0  501  504  0.00000000000E+00  0.00000000000E+00 -0.34075064085E+04  0.34075064085E+04  0.00000000000E+00 0.  1.
        6    1    1    2  501    0 -0.78383869489E+02 -0.73383636081E+02 -0.17627648558E+04  0.17744853130E+04  0.17300000000E+03 0.  1.
       -6    1    1    2    0  502  0.15924321911E+03  0.10545234976E+03 -0.78214044729E+03  0.82349941116E+03  0.17300000000E+03 0.  1.
        6    1    1    2  502    0 -0.12926212896E+03 -0.10872967335E+03 -0.43986951299E+03  0.50194125982E+03  0.17300000000E+03 0. -1.
       -6    1    1    2    0  503  0.48402779340E+02  0.76660959672E+02 -0.33903790356E+03  0.39127411343E+03  0.17300000000E+03 0. -1.
</event>
<event>
 6   0  0.4500850E-05  0.2015782E+03  0.7546771E-02  0.1149929E+00
       21   -1    0    0  501  503  0.00000000000E+00  0.00000000000E+00  0.31916969935E+03  0.31916969935E+03  0.00000000000E+00 0.  1.
       21   -1    0    0  502  504  0.00000000000E+00  0.00000000000E+00 -0.11347765319E+04  0.11347765319E+04  0.00000000000E+00 0.  1.
        6    1    1    2  501    0  0.13087913719E+02  0.25041197198E+02  0.16322496520E+03  0.23951982028E+03  0.17300000000E+03 0.  1.
       -6    1    1    2    0  504 -0.14410318349E+03 -0.15799525439E+02 -0.14358680667E+03  0.26750985692E+03  0.17300000000E+03 0. -1.
        6    1    1    2  502    0 -0.18382283175E+02 -0.60976401009E+02 -0.21133489153E+03  0.28044155575E+03  0.17300000000E+03 0.  1.
       -6    1    1    2    0  503  0.14939755295E+03  0.51734729251E+02 -0.62391009956E+03  0.66647499831E+03  0.17300000000E+03 0. -1.
</event>
<event>
 6   0  0.4500850E-05  0.2071238E+03  0.7546771E-02  0.1148034E+00
       21   -1    0    0  501  503  0.00000000000E+00  0.00000000000E+00  0.15466657008E+03  0.15466657008E+03  0.00000000000E+00 0.  1.
       21   -1    0    0  502  504  0.00000000000E+00  0.00000000000E+00 -0.14596230779E+04  0.14596230779E+04  0.00000000000E+00 0. -1.
        6    1    1    2  501    0 -0.58732677058E+02 -0.10021665320E+03 -0.25414422549E+03  0.32865056258E+03  0.17300000000E+03 0.  1.
       -6    1    1    2    0  504 -0.57563615339E+02  0.43767114283E+02 -0.74107061850E+03  0.76442382989E+03  0.17300000000E+03 0. -1.
        6    1    1    2  502    0  0.93413594005E+02 -0.56126676678E+02 -0.20134879060E+03  0.28696104066E+03  0.17300000000E+03 0.  1.
       -6    1    1    2    0  503  0.22882698392E+02  0.11257621559E+03 -0.10839287321E+03  0.23425421483E+03  0.17300000000E+03 0.  1.
</event>
<event>
 6   0  0.4500850E-05  0.2160331E+03  0.7546771E-02  0.1141422E+00
       21   -1    0    0  504  503  0.00000000000E+00  0.00000000000E+00  0.30935654457E+03  0.30935654457E+03  0.00000000000E+00 0.  1.
       21   -1    0    0  502  504  0.00000000000E+00  0.00000000000E+00 -0.87355562073E+03  0.87355562073E+03  0.00000000000E+00 0.  1.
        6    1    1    2  501    0  0.47511127468E+01  0.13764003547E+03 -0.41590499197E+02  0.22500249345E+03  0.17300000000E+03 0.  1.
       -6    1    1    2    0  501  0.24722539724E+02 -0.23165369656E+03 -0.40661671616E+03  0.49954058190E+03  0.17300000000E+03 0.  1.
        6    1    1    2  502    0 -0.24176856470E+02  0.80442902143E+02 -0.18935863579E+03  0.26989122595E+03  0.17300000000E+03 0.  1.
       -6    1    1    2    0  503 -0.52967960005E+01  0.13570758948E+02  0.73366774983E+02  0.18847786400E+03  0.17300000000E+03 0.  1.
</event>
<event>
 6   0  0.4500850E-05  0.3429782E+03  0.7546771E-02  0.1084735E+00
       21   -1    0    0  504  503  0.00000000000E+00  0.00000000000E+00  0.88388103801E+03  0.88388103801E+03  0.00000000000E+00 0. -1.
       21   -1    0    0  502  504  0.00000000000E+00  0.00000000000E+00 -0.76002091641E+03  0.76002091641E+03  0.00000000000E+00 0.  1.
        6    1    1    2  501    0 -0.22195029454E+03 -0.48090271033E+03  0.28138537367E+00  0.55718796580E+03  0.17300000000E+03 0.  1.
       -6    1    1    2    0  501 -0.27773226739E+02  0.39764398622E+02 -0.12786460545E+03  0.22052418654E+03  0.17300000000E+03 0.  1.
        6    1    1    2  502    0  0.13721043043E+03  0.22166874509E+03 -0.16381204163E+03  0.35316726880E+03  0.17300000000E+03 0.  1.
       -6    1    1    2    0  503  0.11251309085E+03  0.21946956662E+03  0.41525538331E+03  0.51302253328E+03  0.17300000000E+03 0. -1.
</event>
<event>
 6   0  0.4500850E-05  0.3701721E+03  0.7546771E-02  0.1054957E+00
       21   -1    0    0  504  503  0.00000000000E+00  0.00000000000E+00  0.94940703226E+03  0.94940703226E+03  0.00000000000E+00 0. -1.
       21   -1    0    0  501  504  0.00000000000E+00  0.00000000000E+00 -0.12178453438E+04  0.12178453438E+04  0.00000000000E+00 0.  1.
        6    1    1    2  501    0  0.68763803209E+02 -0.87596009319E+02 -0.45275887184E+03  0.49731390239E+03  0.17300000000E+03 0.  1.
       -6    1    1    2    0  503 -0.91592082647E+02  0.68140833783E+02  0.19960149687E+03  0.28775343679E+03  0.17300000000E+03 0.  1.
        6    1    1    2  502    0  0.44023604816E+03 -0.49594987731E+03  0.80675325347E+02  0.69008084093E+03  0.17300000000E+03 0. -1.
       -6    1    1    2    0  502 -0.41740776872E+03  0.51540505284E+03 -0.95956261932E+02  0.69210419598E+03  0.17300000000E+03 0.  1.
</event>
<event>
 6   0  0.4500850E-05  0.2012545E+03  0.7546771E-02  0.1152820E+00
       21   -1    0    0  501  503  0.00000000000E+00  0.00000000000E+00  0.19033617862E+04  0.19033617862E+04  0.00000000000E+00 0.  1.
       21   -1    0    0  502  504  0.00000000000E+00  0.00000000000E+00 -0.19401178461E+03  0.19401178461E+03  0.00000000000E+00 0. -1.
        6    1    1    2  501    0 -0.77044005489E+02 -0.63844643914E+02  0.59951932051E+03  0.63195279333E+03  0.17300000000E+03 0. -1.
       -6    1    1    2    0  504  0.26031741165E+02 -0.28369980138E+02  0.22389155818E+03  0.28555023576E+03  0.17300000000E+03 0. -1.
        6    1    1    2  502    0  0.63539789396E+02 -0.61701165531E+02  0.92457141033E+03  0.94477808583E+03  0.17300000000E+03 0.  1.
       -6    1    1    2    0  503 -0.12527525072E+02  0.15391578958E+03 -0.38632287449E+02  0.23509245586E+03  0.17300000000E+03 0. -1.
</event>
<event>
 6   0  0.4500850E-05  0.2293559E+03  0.7546771E-02  0.1133142E+00
       21   -1    0    0  501  503  0.00000000000E+00  0.00000000000E+00  0.25205880072E+03  0.25205880072E+03  0.00000000000E+00 0.  1.
       21   -1    0    0  502  504  0.00000000000E+00  0.00000000000E+00 -0.16781141486E+04  0.16781141486E+04  0.00000000000E+00 0.  1.
        6    1    1    2  501    0 -0.24535108652E+03 -0.24280858692E+02 -0.99668949296E+03  0.10412039479E+04  0.17300000000E+03 0.  1.
       -6    1    1    2    0  504  0.53071163308E+02  0.12203470845E+02 -0.39433396619E+03  0.43404348856E+03  0.17300000000E+03 0. -1.
        6    1    1    2  502    0  0.11757068854E+03 -0.77890793523E+02 -0.87298671427E+02  0.23966622739E+03  0.17300000000E+03 0. -1.
       -6    1    1    2    0  503  0.74709234666E+02  0.89968181370E+02  0.52266782692E+02  0.21525928546E+03  0.17300000000E+03 0.  1.
</event>
<event>
 6   0  0.4500850E-05  0.2317997E+03  0.7546771E-02  0.1126385E+00
       21   -1    0    0  502  503  0.00000000000E+00  0.00000000000E+00  0.17195138608E+04  0.17195138608E+04  0.00000000000E+00 0.  1.
       21   -1    0    0  501  504  0.00000000000E+00  0.00000000000E+00 -0.43484600304E+03  0.43484600304E+03  0.00000000000E+00 0. -1.
        6    1    1    2  501    0 -0.41463399448E+02  0.79991220416E+02 -0.27632075014E+03  0.33823063994E+03  0.17300000000E+03 0. -1.
       -6    1    1    2    0  504 -0.67244312744E+02 -0.41471713170E+02  0.86130790976E+03  0.88205556288E+03  0.17300000000E+03 0.  1.
        6    1    1    2  502    0 -0.15048388504E+03  0.60499411409E+02  0.49350054683E+03  0.54751928565E+03  0.17300000000E+03 0.  1.
       -6    1    1    2    0  503  0.25919159723E+03 -0.99018918654E+02  0.20618015134E+03  0.38655437539E+03  0.17300000000E+03 0. -1.
</event>
<event>
 6   0  0.4500850E-05  0.4363614E+03  0.7546771E-02  0.1057441E+00
       21   -1    0    0  501  503  0.00000000000E+00  0.00000000000E+00  0.66970897961E+03  0.66970897961E+03  0.00000000000E+00 0. -1.
       21   -1    0    0  502  504  0.00000000000E+00  0.00000000000E+00 -0.86938599807E+03  0.86938599807E+03  0.00000000000E+00 0. -1.
        6    1    1    2  501    0  0.10657798787E+03  0.11687719056E+03  0.29809701461E+02  0.23629803950E+03  0.17300000000E+03 0. -1.
       -6    1    1    2    0  504  0.18537829804E+02  0.11533280417E+03 -0.64580594835E+03  0.67870437583E+03  0.17300000000E+03 0.  1.
        6    1    1    2  502    0 -0.55676632887E+02 -0.65198533945E+02  0.90498162698E+02  0.21323614546E+03  0.17300000000E+03 0. -1.
       -6    1    1    2    0  503 -0.69439184792E+02 -0.16701146078E+03  0.32582106574E+03  0.41085641688E+03  0.17300000000E+03 0.  1.
</event>
<event>
 6   0  0.4500850E-05  0.1962372E+03  0.7546771E-02  0.1156189E+00
       21   -1    0    0  502  503  0.00000000000E+00  0.00000000000E+00  0.65932096247E+03  0.65932096247E+03  0.00000000000E+00 0.  1.
       21   -1    0    0  501  504  0.00000000000E+00  0.00000000000E+00 -0.42512016163E+03  0.42512016163E+03  0.00000000000E+00 0. -1.
        6    1    1    2  501    0 -0.53942783100E+02 -0.26333256821E+02  0.26304701970E+02  0.18499784217E+03  0.17300000000E+03 0.  1.
       -6    1    1    2    0  503 -0.85969057166E+02 -0.12725988286E+02  0.39293523562E+03  0.43804078459E+03  0.17300000000E+03 0. -1.
        6    1    1    2  502    0  0.12969099109E+03  0.94215867086E+02 -0.13913303387E+03  0.27383094036E+03  0.17300000000E+03 0. -1.
       -6    1    1    2    0  504  0.10220849172E+02 -0.55156621979E+02 -0.45906102890E+02  0.18757155698E+03  0.17300000000E+03 0. -1.
</event>
<event>
 6   0  0.4500850E-05  0.7335072E+03  0.7546771E-02  0.9976046E-01
       21   -1    0    0  501  503  0.00000000000E+00  0.00000000000E+00  0.16766598808E+04  0.16766598808E+04  0.00000000000E+00 0.  1.
       21   -1    0    0  502  504  0.00000000000E+00  0.00000000000E+00 -0.47958317988E+03  0.47958317988E+03  0.00000000000E+00 0.  1.
        6    1    1    2  501    0 -0.58472576587E+03 -0.17412416369E+03  0.58191031517E+03  0.86068116080E+03  0.17300000000E+03 0.  1.
       -6    1    1    2    0  504 -0.57636559148E+02 -0.15709187599E+03  0.20846144798E+01  0.24069311596E+03  0.17300000000E+03 0. -1.
        6    1    1    2  502    0  0.38325347995E+03  0.33511061191E+03  0.46050321274E+03  0.70793683409E+03  0.17300000000E+03 0.  1.
       -6    1    1    2    0  503  0.25910884506E+03 -0.38945722318E+01  0.15257855852E+03  0.34693194981E+03  0.17300000000E+03 0.  1.
</event>
<event>
 6   0  0.4500850E-05  0.2222254E+03  0.7546771E-02  0.1133996E+00
       21   -1    0    0  504  503  0.00000000000E+00  0.00000000000E+00  0.34584754299E+03  0.34584754299E+03  0.00000000000E+00 0. -1.
       21   -1    0    0  502  504  0.00000000000E+00  0.00000000000E+00 -0.12463304594E+04  0.12463304594E+04  0.00000000000E+00 0. -1.
        6    1    1    2  501    0  0.12203608790E+03  0.19303193918E+03 -0.51578710255E+02  0.29110736790E+03  0.17300000000E+03 0. -1.
       -6    1    1    2    0  501 -0.10746991028E+03 -0.16204530300E+03 -0.16612896092E+03  0.30876575829E+03  0.17300000000E+03 0. -1.
        6    1    1    2  502    0  0.45970395231E+02  0.23562943936E+02 -0.76362963283E+03  0.78468318811E+03  0.17300000000E+03 0. -1.
       -6    1    1    2    0  503 -0.60536572852E+02 -0.54549580120E+02  0.80854387641E+02  0.20762168804E+03  0.17300000000E+03 0. -1.
</event>
<event>
 6   0  0.4500850E-05  0.2583236E+03  0.7546771E-02  0.1110702E+00
       21   -1    0    0  501  503  0.00000000000E+00  0.00000000000E+00  0.14408595335E+04  0.14408595335E+04  0.00000000000E+00 0. -1.
       21   -1    0    0  503  504  0.00000000000E+00  0.00000000000E+00 -0.23816550953E+03  0.23816550953E+03  0.00000000000E+00 0.  1.
        6    1    1    2  501    0  0.82959238674E+02 -0.18083697845E+02  0.12719556669E+03  0.23090467209E+03  0.17300000000E+03 0.  1.
       -6    1    1    2    0  502  0.62353159765E+02 -0.30034873030E+03  0.65201470178E+03  0.74104618456E+03  0.17300000000E+03 0. -1.
        6    1    1    2  502    0 -0.17596665542E+03  0.27091310211E+03  0.19547023939E+03  0.41532612150E+03  0.17300000000E+03 0.  1.
       -6    1    1    2    0  504  0.30654256982E+02  0.47519326038E+02  0.22801351608E+03  0.29174806483E+03  0.17300000000E+03 0. -1.
</event>
<event>
 6   0  0.4500850E-05  0.3699223E+03  0.7546771E-02  0.1076265E+00
       21   -1    0    0  502  503  0.00000000000E+00  0.00000000000E+00  0.74244048715E+03  0.74244048715E+03  0.00000000000E+00 0.  1.
       21   -1    0    0  501  504  0.00000000000E+00  0.00000000000E+00 -0.85233060215E+03  0.85233060215E+03  0.00000000000E+00 0. -1.
        6    1    1    2  501    0 -0.13491135775E+03  0.29437517021E+03 -0.26453481263E+03  0.45251020141E+03  0.17300000000E+03 0. -1.
       -6    1    1    2    0  503  0.24127222553E+03 -0.24061099564E+03 -0.29143692615E+03  0.48059382014E+03  0.17300000000E+03 0.  1.
        6    1    1    2  502    0  0.74837885187E+02  0.77252777666E+02  0.15577129110E+03  0.25644179817E+03  0.17300000000E+03 0.  1.
       -6    1    1    2    0  504 -0.18119875297E+03 -0.13101695224E+03  0.29031033268E+03  0.40522526959E+03  0.17300000000E+03 0.  1.
</event>
<event>
 6   0  0.4500850E-05  0.2313638E+03  0.7546771E-02  0.1134832E+00
       21   -1    0    0  502  503  0.00000000000E+00  0.00000000000E+00  0.63646001954E+03  0.63646001954E+03  0.00000000000E+00 0. -1.
       21   -1    0    0  503  504  0.00000000000E+00  0.00000000000E+00 -0.10927409580E+04  0.10927409580E+04  0.00000000000E+00 0. -1.
        6    1    1    2  501    0 -0.17028097668E+02 -0.14494831075E+03  0.12532739281E+03  0.25871977947E+03  0.17300000000E+03 0.  1.
       -6    1    1    2    0  504  0.72626253900E+01 -0.17515507894E+03 -0.67026784140E+03  0.71408684809E+03  0.17300000000E+03 0. -1.
        6    1    1    2  502    0 -0.27695396212E+02  0.15322227896E+03  0.33647255953E+03  0.40912942336E+03  0.17300000000E+03 0.  1.
       -6    1    1    2    0  501  0.37460868490E+02  0.16688111073E+03 -0.24781304936E+03  0.34726492656E+03  0.17300000000E+03 0. -1.
</event>
<event>
 6   0  0.4500850E-05  0.3864593E+03  0.7546771E-02  0.1067926E+00
       21   -1    0    0  502  503  0.00000000000E+00  0.00000000000E+00  0.46231759205E+03  0.46231759205E+03  0.00000000000E+00 0. -1.
       21   -1    0    0  501  504  0.00000000000E+00  0.00000000000E+00 -0.11543741525E+04  0.11543741525E+04  0.00000000000E+00 0. -1.
        6    1    1    2  501    0  0.38485335528E+02 -0.65188527087E+02 -0.79930277776E+03  0.82130663923E+03  0.17300000000E+03 0.  1.
       -6    1    1    2    0  504 -0.11758619276E+03  0.20810380048E+00  0.18364286149E+00  0.20917836829E+03  0.17300000000E+03 0. -1.
        6    1    1    2  502    0 -0.17286754011E+03  0.10210836283E+03  0.81429318791E+02  0.27725266120E+03  0.17300000000E+03 0.  1.
       -6    1    1    2    0  503  0.25196839734E+03 -0.37127939545E+02  0.25633255694E+02  0.30895407580E+03  0.17300000000E+03 0. -1.
</event>
<event>
 6   0  0.4500850E-05  0.3125065E+03  0.7546771E-02  0.1081694E+00
       21   -1    0    0  501  503  0.00000000000E+00  0.00000000000E+00  0.14906290565E+04  0.14906290565E+04  0.00000000000E+00 0.  1.
       21   -1    0    0  502  504  0.00000000000E+00  0.00000000000E+00 -0.66029979694E+03  0.66029979694E+03  0.00000000000E+00 0.  1.
        6    1    1    2  501    0  0.51729670746E+02  0.76646718415E+02  0.77109703604E+03  0.79565716063E+03  0.17300000000E+03 0.  1.
       -6    1    1    2    0  503 -0.94171693776E+02  0.48293676215E+03 -0.17925744718E+03  0.55150562691E+03  0.17300000000E+03 0.  1.
        6    1    1    2  502    0  0.66836525602E+02 -0.10286147731E+03 -0.72648317328E+02  0.22417489306E+03  0.17300000000E+03 0. -1.
       -6    1    1    2    0  504 -0.24394502572E+02 -0.45672200326E+03  0.31113798800E+03  0.57959117280E+03  0.17300000000E+03 0.  1.
</event>
<event>
 6   0  0.4500850E-05  0.2926520E+03  0.7546771E-02  0.1091962E+00
       21   -1    0    0  504  503  0.00000000000E+00  0.00000000000E+00  0.11139070508E+04  0.11139070508E+04  0.00000000000E+00 0.  1.
       21   -1    0    0  501  504  0.00000000000E+00  0.00000000000E+00 -0.78312941169E+03  0.78312941169E+03  0.00000000000E+00 0. -1.
        6    1    1    2  501    0  0.12476477893E+03  0.25012330615E+02 -0.41386079085E+01  0.21479756707E+03  0.17300000000E+03 0. -1.
       -6    1    1    2    0  503 -0.53698505974E+02 -0.71370107334E+02  0.62194598240E+02  0.20438784165E+03  0.17300000000E+03 0.  1.
        6    1    1    2  502    0  0.22164953479E+03  0.36304747390E+03  0.70621793480E+03  0.84238041051E+03  0.17300000000E+03 0.  1.
       -6    1    1    2    0  502 -0.29271580775E+03 -0.31668969718E+03 -0.43349628603E+03  0.63547064323E+03  0.17300000000E+03 0. -1.
</event>
<event>
 6   0  0.4500850E-05  0.3033754E+03  0.7546771E-02  0.1102744E+00
       21   -1    0    0  502  503  0.00000000000E+00  0.00000000000E+00  0.49820305641E+03  0.49820305641E+03  0.00000000000E+00 0.  1.
       21   -1    0    0  501  504  0.00000000000E+00  0.00000000000E+00 -0.12126976360E+04  0.12126976360E+04  0.00000000000E+00 0. -1.
        6    1    1    2  501    0 -0.15315034193E+01  0.23337254528E+03 -0.38633000011E+03  0.48336834751E+03  0.17300000000E+03 0. -1.
       -6    1    1    2    0  503  0.21843044071E+03 -0.30900469561E+03 -0.49597566094E+03  0.64739216522E+03  0.17300000000E+03 0. -1.
        6    1    1    2  502    0  0.31285791182E+02  0.28482863100E+02  0.20516997496E+03  0.27168693904E+03  0.17300000000E+03 0.  1.
       -6    1    1    2    0  504 -0.24818472847E+03  0.47149287230E+02 -0.37358893480E+02  0.30845324063E+03  0.17300000000E+03 0.  1.
</event>
<event>
 6   0  0.4500850E-05  0.2629036E+03  0.7546771E-02  0.1115632E+00
       21   -1    0    0  504  503  0.00000000000E+00  0.00000000000E+00  0.64341097646E+03  0.64341097646E+03  0.00000000000E+00 0.  1.
       21   -1    0    0  501  504  0.00000000000E+00  0.00000000000E+00 -0.10120467210E+04  0.10120467210E+04  0.00000000000E+00 0. -1.
        6    1    1    2  501    0  0.14197881509E+03  0.22889280610E+03 -0.23001115025E+03  0.39418781039E+03  0.17300000000E+03 0. -1.
       -6    1    1    2    0  503 -0.16574475806E+03  0.84118442508E+02  0.33647584059E+03  0.42153556018E+03  0.17300000000E+03 0.  1.
        6    1    1    2  502    0  0.31700193664E+02 -0.22510826140E+03  0.40724781133E+02  0.28855872787E+03  0.17300000000E+03 0. -1.
       -6    1    1    2    0  502 -0.79342506983E+01 -0.87902987206E+02 -0.51582521599E+03  0.55117559901E+03  0.17300000000E+03 0. -1.
</event>
<event>
 6   0  0.4500850E-05  0.3761287E+03  0.7546771E-02  0.1064549E+00
       21   -1    0    0  501  503  0.00000000000E+00  0.00000000000E+00  0.21387407299E+04  0.21387407299E+04  0.00000000000E+00 0.  1.
       21   -1    0    0  502  504  0.00000000000E+00  0.00000000000E+00 -0.89043500928E+03  0.89043500928E+03  0.00000000000E+00 0.  1.
        6    1    1    2  501    0  0.71894088068E+02 -0.12142872295E+02  0.12224287891E+04  0.12367608312E+04  0.17300000000E+03 0.  1.
       -6    1    1    2    0  503 -0.23703214988E+03  0.36834814496E+03  0.18575952248E+03  0.50626099610E+03  0.17300000000E+03 0.  1.
        6    1    1    2  502    0 -0.85708081248E+02  0.18201563197E+03 -0.51039347113E+03  0.57524434882E+03  0.17300000000E+03 0.  1.
       -6    1    1    2    0  504  0.25084614306E+03 -0.53822090464E+03  0.35051088015E+03  0.71090956302E+03  0.17300000000E+03 0.  1.
</event>
<event>
 6   0  0.4500850E-05  0.2428775E+03  0.7546771E-02  0.1128872E+00
       21   -1    0    0  502  503  0.00000000000E+00  0.00000000000E+00  0.11685946446E+03  0.11685946446E+03  0.00000000000E+00 0. -1.
       21   -1    0    0  501  504  0.00000000000E+00  0.00000000000E+00 -0.24929106474E+04  0.24929106474E+04  0.00000000000E+00 0. -1.
        6    1    1    2  501    0  0.91269217761E+02  0.18774782590E+03 -0.59273950169E+03  0.65180398365E+03  0.17300000000E+03 0.  1.
       -6    1    1    2    0  504 -0.11024177418E+03  0.39490545132E+02 -0.38879607578E+03  0.44136622036E+03  0.17300000000E+03 0.  1.
        6    1    1    2  502    0  0.93350287821E+01 -0.64470429088E+02 -0.12066124361E+03  0.22075260972E+03  0.17300000000E+03 0. -1.
       -6    1    1    2    0  503  0.96375276347E+01 -0.16276794195E+03 -0.12738543619E+04  0.12958472981E+04  0.17300000000E+03 0. -1.
</event>
<event>
 6   0  0.4500850E-05  0.4862296E+03  0.7546771E-02  0.1018132E+00
       -2   -1    0    0    0  501  0.00000000000E+00  0.00000000000E+00  0.55741980042E+03  0.55741980042E+03  0.00000000000E+00 0.  1.
        2   -1    0    0  502    0  0.00000000000E+00  0.00000000000E+00 -0.41775138970E+03  0.41775138970E+03  0.00000000000E+00 0. -1.
        6    1    1    2  502    0 -0.14784159101E+02  0.18537506146E+03  0.15142609348E+03  0.29570483013E+03  0.17300000000E+03 0. -1.
       -6    1    1    2    0  503  0.11903732072E+03 -0.72580552238E+02 -0.21926206870E+02  0.22326571352E+03  0.17300000000E+03 0.  1.
        6    1    1    2  503    0 -0.31825358783E+02 -0.17496802631E+03  0.53762712208E+02  0.25386235034E+03  0.17300000000E+03 0.  1.
       -6    1    1    2    0  501 -0.72427802834E+02  0.62173517086E+02 -0.43594188099E+02  0.20233829614E+03  0.17300000000E+03 0. -1.
</event>
<event>
 6   0  0.4500850E-05  0.3063765E+03  0.7546771E-02  0.1087793E+00
       21   -1    0    0  501  503  0.00000000000E+00  0.00000000000E+00  0.28333373722E+04  0.28333373722E+04  0.00000000000E+00 0.  1.
       21   -1    0    0  502  504  0.00000000000E+00  0.00000000000E+00 -0.27645742026E+03  0.27645742026E+03  0.00000000000E+00 0. -1.
        6    1    1    2  501    0  0.53573285854E+01 -0.69394108514E+02  0.11499583997E+04  0.11649796412E+04  0.17300000000E+03 0.  1.
       -6    1    1    2    0  503 -0.12869937744E+03  0.29880402207E+02 -0.66338315530E+02  0.22756568348E+03  0.17300000000E+03 0. -1.
        6    1    1    2  502    0 -0.26119912796E+03  0.22491691686E+03  0.43470514583E+03  0.58112835738E+03  0.17300000000E+03 0.  1.
       -6    1    1    2    0  504  0.38454117681E+03 -0.18540321055E+03  0.10385547219E+04  0.11361211104E+04  0.17300000000E+03 0. -1.
</event>
<event>
 6   0  0.4500850E-05  0.3395880E+03  0.7546771E-02  0.1087501E+00
       21   -1    0    0  501  503  0.00000000000E+00  0.00000000000E+00  0.27820888028E+03  0.27820888028E+03  0.00000000000E+00 0.  1.
       21   -1    0    0  502  504  0.00000000000E+00  0.00000000000E+00 -0.18194614052E+04  0.18194614052E+04  0.00000000000E+00 0. -1.
        6    1    1    2  501    0  0.84267605941E+02 -0.27030234682E+03 -0.72527192997E+03  0.79756677495E+03  0.17300000000E+03 0. -1.
       -6    1    1    2    0  504 -0.53225455354E+02 -0.17571927849E+01 -0.20783886146E+03  0.27561209908E+03  0.17300000000E+03 0.  1.
        6    1    1    2  502    0 -0.29083434812E+03  0.36294041906E+03 -0.32313767795E+03  0.59216325852E+03  0.17300000000E+03 0.  1.
       -6    1    1    2    0  503  0.25979219753E+03 -0.90880879454E+02 -0.28500405558E+03  0.43232815297E+03  0.17300000000E+03 0. -1.
</event>
<event>
 6   0  0.4500850E-05  0.2681812E+03  0.7546771E-02  0.1104831E+00
       21   -1    0    0  502  503  0.00000000000E+00  0.00000000000E+00  0.36828727667E+03  0.36828727667E+03  0.00000000000E+00 0.  1.
       21   -1    0    0  501  504  0.00000000000E+00  0.00000000000E+00 -0.11485809947E+04  0.11485809947E+04  0.00000000000E+00 0.  1.
        6    1    1    2  501    0  0.30410244368E+03  0.17995396029E+02 -0.34921711749E+03  0.49465515835E+03  0.17300000000E+03 0.  1.
       -6    1    1    2    0  504  0.13353459259E+03  0.45188891590E+02  0.69715682345E+02  0.23380076926E+03  0.17300000000E+03 0. -1.
        6    1    1    2  502    0 -0.18297293943E+03  0.35969176775E+02 -0.34706465650E+03  0.43029728564E+03  0.17300000000E+03 0.  1.
       -6    1    1    2    0  503 -0.25466409684E+03 -0.99153464394E+02 -0.15372762637E+03  0.35811505809E+03  0.17300000000E+03 0. -1.
</event>
<event>
 6   0  0.4500850E-05  0.3997086E+03  0.7546771E-02  0.1063486E+00
       21   -1    0    0  502  503  0.00000000000E+00  0.00000000000E+00  0.75439736938E+03  0.75439736938E+03  0.00000000000E+00 0. -1.
       21   -1    0    0  503  504  0.00000000000E+00  0.00000000000E+00 -0.61325604342E+03  0.61325604342E+03  0.00000000000E+00 0. -1.
        6    1    1    2  501    0  0.12495457049E+03 -0.20525404420E+03 -0.11585379896E+01  0.29609662200E+03  0.17300000000E+03 0.  1.
       -6    1    1    2    0  504  0.69701139338E+02  0.13349090716E+03  0.19535579761E+02  0.23019276704E+03  0.17300000000E+03 0.  1.
        6    1    1    2  502    0 -0.44479488899E+03  0.47504127577E+02  0.21068388845E+03  0.52384714972E+03  0.17300000000E+03 0. -1.
       -6    1    1    2    0  501  0.25013917917E+03  0.24259009463E+02 -0.87919604260E+02  0.31751687405E+03  0.17300000000E+03 0. -1.
</event>
<event>
 6   0  0.4500850E-05  0.3344503E+03  0.7546771E-02  0.1082589E+00
       21   -1    0    0  504  503  0.00000000000E+00  0.00000000000E+00  0.14274323337E+04  0.14274323337E+04  0.00000000000E+00 0.  1.
       21   -1    0    0  502  504  0.00000000000E+00  0.00000000000E+00 -0.60508883152E+03  0.60508883152E+03  0.00000000000E+00 0.  1.
        6    1    1    2  501    0  0.42848301090E+03  0.11480433090E+03  0.12100157513E+03  0.49127192695E+03  0.17300000000E+03 0.  1.
       -6    1    1    2    0  503 -0.43474798535E+02 -0.58595686948E+02  0.75817676316E+03  0.78107907207E+03  0.17300000000E+03 0.  1.
        6    1    1    2  502    0 -0.56383259469E+02 -0.19271220480E+03 -0.20768407840E+03  0.33671760015E+03  0.17300000000E+03 0.  1.
       -6    1    1    2    0  501 -0.32862495290E+03  0.13650356085E+03  0.15084924229E+03  0.42345256604E+03  0.17300000000E+03 0.  1.
</event>
<event>
 6   0  0.4500850E-05  0.5286675E+03  0.7546771E-02  0.1035537E+00
       21   -1    0    0  502  503  0.00000000000E+00  0.00000000000E+00  0.95753970102E+03  0.95753970102E+03  0.00000000000E+00 0. -1.
       21   -1    0    0  501  504  0.00000000000E+00  0.00000000000E+00 -0.63073100056E+03  0.63073100056E+03  0.00000000000E+00 0.  1.
        6    1    1    2  501    0 -0.16213563286E+03 -0.18161984869E+03 -0.31438619199E+03  0.43363741836E+03  0.17300000000E+03 0.  1.
       -6    1    1    2    0  504  0.19599361017E+03  0.18120898754E+03  0.16670282805E+03  0.35912257695E+03  0.17300000000E+03 0. -1.
        6    1    1    2  502    0  0.24316802974E+02  0.13412931692E+03  0.51999710600E+03  0.56471937350E+03  0.17300000000E+03 0.  1.
       -6    1    1    2    0  503 -0.58174780278E+02 -0.13371845577E+03 -0.45505041591E+02  0.23079133278E+03  0.17300000000E+03 0. -1.
</event>
<event>
 6   0  0.4500850E-05  0.1922740E+03  0.7546771E-02  0.1156818E+00
       21   -1    0    0  502  503  0.00000000000E+00  0.00000000000E+00  0.72814601010E+03  0.72814601010E+03  0.00000000000E+00 0.  1.
       21   -1    0    0  501  504  0.00000000000E+00  0.00000000000E+00 -0.28510276573E+03  0.28510276573E+03  0.00000000000E+00 0.  1.
        6    1    1    2  501    0 -0.71240785243E+02  0.68899864290E+01  0.11587004334E+02  0.18757926342E+03  0.17300000000E+03 0. -1.
       -6    1    1    2    0  504 -0.45575932542E+02 -0.14471036006E+02  0.16611611941E+03  0.24456112045E+03  0.17300000000E+03 0. -1.
        6    1    1    2  502    0 -0.37059864390E+02 -0.30353017807E+02 -0.51598632376E+02  0.18677836626E+03  0.17300000000E+03 0.  1.
       -6    1    1    2    0  503  0.15387658217E+03  0.37934067384E+02  0.31693875300E+03  0.39433002570E+03  0.17300000000E+03 0.  1.
</event>
<event>
 6   0  0.4500850E-05  0.4875704E+03  0.7546771E-02  0.1051721E+00
       21   -1    0    0  501  503  0.00000000000E+00  0.00000000000E+00  0.87980978702E+03  0.87980978702E+03  0.00000000000E+00 0.  1.
       21   -1    0    0  503  504  0.00000000000E+00  0.00000000000E+00 -0.11756839910E+04  0.11756839910E+04  0.00000000000E+00 0. -1.
        6    1    1    2  501    0  0.11268635846E+03  0.25700312257E+03 -0.74097141748E+02  0.33788786129E+03  0.17300000000E+03 0.  1.
       -6    1    1    2    0  502 -0.16097493601E+03 -0.54441066187E+03  0.54579103379E+03  0.80629569722E+03  0.17300000000E+03 0. -1.
        6    1    1    2  502    0  0.58199404990E+02  0.25713255466E+03 -0.49548647315E+03  0.58731607034E+03  0.17300000000E+03 0.  1.
       -6    1    1    2    0  504 -0.99108274390E+01  0.30274984644E+02 -0.27208162291E+03  0.32399414921E+03  0.17300000000E+03 0.  1.
</event>
<event>
 6   0  0.4500850E-05  0.6999211E+03  0.7546771E-02  0.1012366E+00
       21   -1    0    0  501  503  0.00000000000E+00  0.00000000000E+00  0.46291750923E+03  0.46291750923E+03  0.00000000000E+00 0.  1.
       21   -1    0    0  502  504  0.00000000000E+00  0.00000000000E+00 -0.13663805508E+04  0.13663805508E+04  0.00000000000E+00 0. -1.
        6    1    1    2  501    0  0.43362300352E+03  0.29257837076E+03 -0.34856097662E+03  0.65196224326E+03  0.17300000000E+03 0. -1.
       -6    1    1    2    0  504  0.55823923411E+02 -0.56478841661E+02 -0.41347313051E+03  0.45518699414E+03  0.17300000000E+03 0.  1.
        6    1    1    2  502    0 -0.34201201784E+03 -0.30625162505E+02  0.42237678208E+00  0.38449876375E+03  0.17300000000E+03 0.  1.
       -6    1    1    2    0  503 -0.14743490909E+03 -0.20547436659E+03 -0.14185131118E+03  0.33765005883E+03  0.17300000000E+03 0.  1.
</event>
<event>
 6   0  0.4500850E-05  0.4436748E+03  0.7546771E-02  0.1039378E+00
       21   -1    0    0  501  503  0.00000000000E+00  0.00000000000E+00  0.11169098519E+04  0.11169098519E+04  0.00000000000E+00 0.  1.
       21   -1    0    0  502  504  0.00000000000E+00  0.00000000000E+00 -0.57423965565E+03  0.57423965565E+03  0.00000000000E+00 0. -1.
        6    1    1    2  501    0  0.11021567591E+03  0.13030630077E+01 -0.29040440467E+02  0.20717514419E+03  0.17300000000E+03 0.  1.
       -6    1    1    2    0  503  0.38885170002E+03  0.64631333775E+02  0.15803121408E+03  0.45856920801E+03  0.17300000000E+03 0. -1.
        6    1    1    2  502    0 -0.28300743050E+03 -0.98508933021E+02  0.59826768972E+03  0.69112259706E+03  0.17300000000E+03 0.  1.
       -6    1    1    2    0  504 -0.21605994543E+03  0.32574536239E+02 -0.18458826707E+03  0.33428255828E+03  0.17300000000E+03 0. -1.
</event>
<event>
 6   0  0.4500850E-05  0.2225508E+03  0.7546771E-02  0.1134341E+00
       21   -1    0    0  502  503  0.00000000000E+00  0.00000000000E+00  0.10253772931E+04  0.10253772931E+04  0.00000000000E+00 0.  1.
       21   -1    0    0  503  504  0.00000000000E+00  0.00000000000E+00 -0.42663163105E+03  0.42663163105E+03  0.00000000000E+00 0.  1.
        6    1    1    2  501    0 -0.82419499494E+02 -0.51873597542E+02  0.43808422167E+03  0.48096842858E+03  0.17300000000E+03 0. -1.
       -6    1    1    2    0  501 -0.58212960173E+02  0.21993730771E+03  0.21301327407E+03  0.35646153086E+03  0.17300000000E+03 0.  1.
        6    1    1    2  502    0  0.92078111628E+02 -0.11706867874E+03  0.19802881806E+03  0.30220500817E+03  0.17300000000E+03 0.  1.
       -6    1    1    2    0  504  0.48554348040E+02 -0.50995031431E+02 -0.25038065175E+03  0.31237395653E+03  0.17300000000E+03 0.  1.
</event>
<event>
 6   0  0.4500850E-05  0.2230570E+03  0.7546771E-02  0.1133328E+00
       21   -1    0    0  501  503  0.00000000000E+00  0.00000000000E+00  0.16693426095E+04  0.16693426095E+04  0.00000000000E+00 0. -1.
       21   -1    0    0  503  504  0.00000000000E+00  0.00000000000E+00 -0.71960639298E+03  0.71960639298E+03  0.00000000000E+00 0. -1.
        6    1    1    2  501    0 -0.39399702211E+01  0.97991763152E+02  0.87878381775E+03  0.90100383315E+03  0.17300000000E+03 0. -1.
       -6    1    1    2    0  502  0.54786124204E+00 -0.26979767824E+03  0.66146915568E+03  0.73502485077E+03  0.17300000000E+03 0. -1.
        6    1    1    2  502    0  0.81021645013E+02  0.14880148301E+03 -0.46526752605E+03  0.52450858821E+03  0.17300000000E+03 0. -1.
       -6    1    1    2    0  504 -0.77629536034E+02  0.23004432078E+02 -0.12524923082E+03  0.22841173039E+03  0.17300000000E+03 0.  1.
</event>
<event>
 6   0  0.4500850E-05  0.2964120E+03  0.7546771E-02  0.1090159E+00
       21   -1    0    0  501  503  0.00000000000E+00  0.00000000000E+00  0.90152604642E+03  0.90152604642E+03  0.00000000000E+00 0. -1.
       21   -1    0    0  503  504  0.00000000000E+00  0.00000000000E+00 -0.94316086666E+03  0.94316086666E+03  0.00000000000E+00 0. -1.
        6    1    1    2  501    0 -0.15370104835E+03 -0.12442632501E+02  0.33992632187E+03  0.41140945014E+03  0.17300000000E+03 0. -1.
       -6    1    1    2    0  504  0.96101595188E+02 -0.16287591778E+03 -0.25204066651E+03  0.35946846700E+03  0.17300000000E+03 0. -1.
        6    1    1    2  502    0 -0.24294736891E+03  0.35942611816E+03 -0.38508682040E+03  0.60533578923E+03  0.17300000000E+03 0.  1.
       -6    1    1    2    0  502  0.30054682207E+03 -0.18410756787E+03  0.25556634480E+03  0.46847320671E+03  0.17300000000E+03 0.  1.
</event>
<event>
 6   0  0.4500850E-05  0.3258822E+03  0.7546771E-02  0.1081952E+00
       21   -1    0    0  501  503  0.00000000000E+00  0.00000000000E+00  0.38841653348E+03  0.38841653348E+03  0.00000000000E+00 0. -1.
       21   -1    0    0  503  504  0.00000000000E+00  0.00000000000E+00 -0.29801551129E+04  0.29801551129E+04  0.00000000000E+00 0.  1.
        6    1    1    2  501    0 -0.34488021051E+03 -0.78679427739E+02  0.13705793844E+03  0.41694926603E+03  0.17300000000E+03 0. -1.
       -6    1    1    2    0  504 -0.99001205488E+02 -0.34051992657E+02 -0.14792117161E+04  0.14929692154E+04  0.17300000000E+03 0.  1.
        6    1    1    2  502    0  0.43243367822E+03 -0.86324064486E+02 -0.93375060192E+03  0.10470290907E+04  0.17300000000E+03 0.  1.
       -6    1    1    2    0  502  0.11447737777E+02  0.19905548488E+03 -0.31583419982E+03  0.41162407429E+03  0.17300000000E+03 0.  1.
</event>
<event>
 6   0  0.4500850E-05  0.2774436E+03  0.7546771E-02  0.1097937E+00
       21   -1    0    0  504  503  0.00000000000E+00  0.00000000000E+00  0.53825428709E+03  0.53825428709E+03  0.00000000000E+00 0.  1.
       21   -1    0    0  502  504  0.00000000000E+00  0.00000000000E+00 -0.82184590057E+03  0.82184590057E+03  0.00000000000E+00 0.  1.
        6    1    1    2  501    0 -0.10371857581E+03 -0.77660539094E+02 -0.12049200927E+02  0.21647837200E+03  0.17300000000E+03 0. -1.
       -6    1    1    2    0  503  0.34825696070E+02 -0.27250140531E+03  0.23016777445E+03  0.39796488463E+03  0.17300000000E+03 0.  1.
        6    1    1    2  502    0  0.14775917144E+03  0.23816297313E+03 -0.32790999840E+03  0.46476697555E+03  0.17300000000E+03 0.  1.
       -6    1    1    2    0  501 -0.78866291699E+02  0.11199897127E+03 -0.17380018861E+03  0.28088995548E+03  0.17300000000E+03 0.  1.
</event>
<event>
 6   0  0.4500850E-05  0.2591703E+03  0.7546771E-02  0.1122636E+00
       21   -1    0    0  501  503  0.00000000000E+00  0.00000000000E+00  0.22541734945E+04  0.22541734945E+04  0.00000000000E+00 0.  1.
       21   -1    0    0  502  504  0.00000000000E+00  0.00000000000E+00 -0.20242539795E+03  0.20242539795E+03  0.00000000000E+00 0.  1.
        6    1    1    2  501    0 -0.64295547158E+01  0.39326762916E+02  0.47289792038E+03  0.50512313009E+03  0.17300000000E+03 0.  1.
       -6    1    1    2    0  503 -0.16907277876E+02 -0.62841638988E+02  0.95088811310E+03  0.96868577530E+03  0.17300000000E+03 0. -1.
        6    1    1    2  502    0  0.14053421724E+03 -0.13234664663E+03 -0.43186393530E+02  0.26279186760E+03  0.17300000000E+03 0.  1.
       -6    1    1    2    0  504 -0.11719738465E+03  0.15586152270E+03  0.67114845665E+03  0.71999811950E+03  0.17300000000E+03 0.  1.
</event>
<event>
 6   0  0.4500850E-05  0.5319375E+03  0.7546771E-02  0.1007547E+00
        2   -1    0    0  502    0  0.00000000000E+00  0.00000000000E+00  0.64202032717E+03  0.64202032717E+03  0.00000000000E+00 0.  1.
       -2   -1    0    0    0  501  0.00000000000E+00  0.00000000000E+00 -0.41729632819E+03  0.41729632819E+03  0.00000000000E+00 0. -1.
        6    1    1    2  502    0  0.14387303725E+03  0.23604865787E+03  0.55663013531E+02  0.33082592221E+03  0.17300000000E+03 0. -1.
       -6    1    1    2    0  503 -0.59490566752E+01  0.30772594518E+02  0.57505058803E+02  0.18498155486E+03  0.17300000000E+03 0. -1.
        6    1    1    2  503    0 -0.14476473563E+03 -0.34000441385E+02  0.11023825438E+03  0.25336600290E+03  0.17300000000E+03 0.  1.
       -6    1    1    2    0  501  0.68407550580E+01 -0.23282081100E+03  0.13176722657E+01  0.29014317539E+03  0.17300000000E+03 0.  1.
</event>
<event>
 6   0  0.4500850E-05  0.4955256E+03  0.7546771E-02  0.1028124E+00
       21   -1    0    0  502  503  0.00000000000E+00  0.00000000000E+00  0.88060625936E+03  0.88060625936E+03  0.00000000000E+00 0. -1.
       21   -1    0    0  501  504  0.00000000000E+00  0.00000000000E+00 -0.79845575978E+03  0.79845575978E+03  0.00000000000E+00 0.  1.
        6    1    1    2  501    0  0.97660820648E+02  0.13129952732E+03  0.21425205593E+03  0.32032818364E+03  0.17300000000E+03 0. -1.
       -6    1    1    2    0  504 -0.50005108536E+02 -0.45355604030E+03 -0.39538876441E+03  0.62807234264E+03  0.17300000000E+03 0.  1.
        6    1    1    2  502    0 -0.19091563789E+03  0.21097846128E+03 -0.42010005621E+02  0.33564048101E+03  0.17300000000E+03 0.  1.
       -6    1    1    2    0  503  0.14325992578E+03  0.11127805169E+03  0.30529721368E+03  0.39502101185E+03  0.17300000000E+03 0. -1.
</event>
<event>
 6   0  0.4500850E-05  0.3957399E+03  0.7546771E-02  0.1062913E+00
       21   -1    0    0  504  503  0.00000000000E+00  0.00000000000E+00  0.72443737598E+03  0.72443737598E+03  0.00000000000E+00 0.  1.
       21   -1    0    0  502  504  0.00000000000E+00  0.00000000000E+00 -0.19565715356E+04  0.19565715356E+04  0.00000000000E+00 0. -1.
        6    1    1    2  501    0 -0.34311450927E+03 -0.18402465671E+03  0.37265421882E+03  0.56603251457E+03  0.17300000000E+03 0. -1.
       -6    1    1    2    0  501  0.30798877862E+03  0.40804033464E+03 -0.13316106423E+04  0.14368263309E+04  0.17300000000E+03 0. -1.
        6    1    1    2  502    0  0.31927319687E+02  0.98629433709E+01 -0.33702056555E+03  0.38030052984E+03  0.17300000000E+03 0. -1.
       -6    1    1    2    0  503  0.31984109715E+01 -0.23387862130E+03  0.63842829503E+02  0.29784953620E+03  0.17300000000E+03 0.  1.
</event>
<event>
 6   0  0.4500850E-05  0.2962472E+03  0.7546771E-02  0.1088367E+00
       21   -1    0    0  504  503  0.00000000000E+00  0.00000000000E+00  0.38828572704E+03  0.38828572704E+03  0.00000000000E+00 0. -1.
       21   -1    0    0  501  504  0.00000000000E+00  0.00000000000E+00 -0.19514384840E+04  0.19514384840E+04  0.00000000000E+00 0. -1.
        6    1    1    2  501    0  0.37717999838E+03 -0.14801393928E+03 -0.88430589813E+03  0.98797712467E+03  0.17300000000E+03 0. -1.
       -6    1    1    2    0  503  0.50691134968E+02 -0.20429297206E+03 -0.12233542635E+03  0.29866396860E+03  0.17300000000E+03 0.  1.
        6    1    1    2  502    0 -0.24757856130E+03  0.23789401323E+03  0.49524959411E+02  0.38764729736E+03  0.17300000000E+03 0. -1.
       -6    1    1    2    0  502 -0.18029257205E+03  0.11441289812E+03 -0.60603639191E+03  0.66543582043E+03  0.17300000000E+03 0. -1.
</event>
<event>
 6   0  0.4500850E-05  0.2098620E+03  0.7546771E-02  0.1142863E+00
       21   -1    0    0  504  503  0.00000000000E+00  0.00000000000E+00  0.12430274437E+04  0.12430274437E+04  0.00000000000E+00 0. -1.
       21   -1    0    0  501  504  0.00000000000E+00  0.00000000000E+00 -0.10778618559E+04  0.10778618559E+04  0.00000000000E+00 0.  1.
        6    1    1    2  501    0  0.12334486098E+03 -0.16938047524E+02 -0.99257354463E+03  0.10152005190E+04  0.17300000000E+03 0.  1.
       -6    1    1    2    0  502 -0.65157563897E+02 -0.27369789541E+02  0.43856683623E+03  0.47672264825E+03  0.17300000000E+03 0.  1.
        6    1    1    2  502    0 -0.81631020311E+02  0.11441186241E+03  0.35762000715E+03  0.42139621172E+03  0.17300000000E+03 0. -1.
       -6    1    1    2    0  503  0.23443723227E+02 -0.70104025348E+02  0.36155228904E+03  0.40756992067E+03  0.17300000000E+03 0.  1.
</event>
<event>
 6   0  0.4500850E-05  0.2230862E+03  0.7546771E-02  0.1133211E+00
       21   -1    0    0  501  503  0.00000000000E+00  0.00000000000E+00  0.74645732311E+03  0.74645732311E+03  0.00000000000E+00 0. -1.
       21   -1    0    0  503  504  0.00000000000E+00  0.00000000000E+00 -0.23648754123E+04  0.23648754123E+04  0.00000000000E+00 0.  1.
        6    1    1    2  501    0 -0.51826410365E+02  0.78096071429E+02  0.53019047573E+03  0.56552269074E+03  0.17300000000E+03 0. -1.
       -6    1    1    2    0  502  0.63693921335E+02  0.14737809843E+03 -0.38437707051E+02  0.23913108714E+03  0.17300000000E+03 0.  1.
        6    1    1    2  502    0  0.17048867182E+02 -0.11278696346E+03 -0.22291178869E+02  0.20841655321E+03  0.17300000000E+03 0. -1.
       -6    1    1    2    0  504 -0.28916378152E+02 -0.11268720641E+03 -0.20878796790E+04  0.20982624043E+04  0.17300000000E+03 0.  1.
</event>
<event>
 6   0  0.4500850E-05  0.3866126E+03  0.7546771E-02  0.1065476E+00
       21   -1    0    0  502  503  0.00000000000E+00  0.00000000000E+00  0.12842338923E+04  0.12842338923E+04  0.00000000000E+00 0.  1.
       21   -1    0    0  501  504  0.00000000000E+00  0.00000000000E+00 -0.24758420267E+03  0.24758420267E+03  0.00000000000E+00 0. -1.
        6    1    1    2  501    0 -0.25524900240E+03 -0.67714860040E+02  0.14406199266E+03  0.34701615701E+03  0.17300000000E+03 0. -1.
       -6    1    1    2    0  504 -0.39397859698E+01 -0.10581107857E+03  0.57614887451E+03  0.61080932529E+03  0.17300000000E+03 0.  1.
        6    1    1    2  502    0  0.89149899710E+02  0.10607613824E+03  0.10524691053E+03  0.24536862859E+03  0.17300000000E+03 0. -1.
       -6    1    1    2    0  503  0.17003888866E+03  0.67449800368E+02  0.21119191188E+03  0.32862398402E+03  0.17300000000E+03 0. -1.
</event>
<event>
 6   0  0.4500850E-05  0.4097349E+03  0.7546771E-02  0.1059011E+00
       21   -1    0    0  502  503  0.00000000000E+00  0.00000000000E+00  0.24804419886E+04  0.24804419886E+04  0.00000000000E+00 0.  1.
       21   -1    0    0  503  504  0.00000000000E+00  0.00000000000E+00 -0.80316496502E+03  0.80316496502E+03  0.00000000000E+00 0. -1.
        6    1    1    2  501    0 -0.25931043416E+03 -0.39381158725E+03 -0.20296053651E+03  0.54171159014E+03  0.17300000000E+03 0.  1.
       -6    1    1    2    0  504  0.26425665469E+03  0.19454120570E+03 -0.30261048646E+03  0.47872744519E+03  0.17300000000E+03 0. -1.
        6    1    1    2  502    0  0.15943686637E+03  0.23473501567E+03  0.93747351606E+03  0.99463874610E+03  0.17300000000E+03 0.  1.
       -6    1    1    2    0  501 -0.16438308690E+03 -0.35464634122E+02  0.12453745305E+04  0.12685291722E+04  0.17300000000E+03 0. -1.
</event>
<event>
 6   0  0.4500850E-05  0.3162953E+03  0.7546771E-02  0.1088262E+00
       21   -1    0    0  501  503  0.00000000000E+00  0.00000000000E+00  0.26666377267E+03  0.26666377267E+03  0.00000000000E+00 0. -1.
       21   -1    0    0  502  504  0.00000000000E+00  0.00000000000E+00 -0.18138333658E+04  0.18138333658E+04  0.00000000000E+00 0.  1.
        6    1    1    2  501    0  0.10233795354E+01  0.91156333737E+02 -0.72829911445E+02  0.20867132167E+03  0.17300000000E+03 0.  1.
       -6    1    1    2    0  503 -0.32057855199E+03 -0.15015734042E+03 -0.43629542660E+03  0.58787799257E+03  0.17300000000E+03 0. -1.
        6    1    1    2  502    0  0.93550282828E+02 -0.18295835067E+03 -0.79280974094E+03  0.83707926675E+03  0.17300000000E+03 0.  1.
       -6    1    1    2    0  504  0.22600488962E+03  0.24195935736E+03 -0.24523451419E+03  0.44686855751E+03  0.17300000000E+03 0. -1.
</event>
<event>
 6   0  0.4500850E-05  0.7245804E+03  0.7546771E-02  0.9676096E-01
        2   -1    0    0  502    0  0.00000000000E+00  0.00000000000E+00  0.17686498656E+04  0.17686498656E+04  0.00000000000E+00 0. -1.
       -2   -1    0    0    0  501  0.00000000000E+00  0.00000000000E+00 -0.45908300854E+03  0.45908300854E+03  0.00000000000E+00 0.  1.
        6    1    1    2  502    0 -0.28886469859E+03  0.12670660547E+03  0.54901509424E+03  0.65638704410E+03  0.17300000000E+03 0. -1.
       -6    1    1    2    0  503 -0.28270637843E+03 -0.49227355081E+02  0.66163719853E+03  0.74164614970E+03  0.17300000000E+03 0. -1.
        6    1    1    2  503    0  0.55044266460E+03 -0.10877995134E+03 -0.62019260215E+02  0.59041984508E+03  0.17300000000E+03 0.  1.
       -6    1    1    2    0  501  0.21128412409E+02  0.31300700949E+02  0.16093382454E+03  0.23927983528E+03  0.17300000000E+03 0. -1.
</event>
<event>
 6   0  0.4500850E-05  0.8959662E+03  0.7546771E-02  0.9848779E-01
       21   -1    0    0  501  503  0.00000000000E+00  0.00000000000E+00  0.13807151159E+04  0.13807151159E+04  0.00000000000E+00 0. -1.
       21   -1    0    0  502  504  0.00000000000E+00  0.00000000000E+00 -0.75761239326E+03  0.75761239326E+03  0.00000000000E+00 0.  1.
        6    1    1    2  501    0  0.42837057540E+03  0.52435675680E+02  0.16559315095E+03  0.49355946105E+03  0.17300000000E+03 0.  1.
       -6    1    1    2    0  504 -0.46056751446E+02 -0.12153299511E+03 -0.19000328602E+03  0.28796135497E+03  0.17300000000E+03 0. -1.
        6    1    1    2  502    0 -0.64842717368E+03 -0.25233896998E+03  0.26337731569E+03  0.76382548122E+03  0.17300000000E+03 0.  1.
       -6    1    1    2    0  503  0.26611334972E+03  0.32143628941E+03  0.38413554203E+03  0.59298121193E+03  0.17300000000E+03 0. -1.
</event>
<event>
 6   0  0.4500850E-05  0.4651008E+03  0.7546771E-02  0.1055032E+00
       21   -1    0    0  501  503  0.00000000000E+00  0.00000000000E+00  0.12771620972E+04  0.12771620972E+04  0.00000000000E+00 0. -1.
       21   -1    0    0  502  504  0.00000000000E+00  0.00000000000E+00 -0.20255255841E+03  0.20255255841E+03  0.00000000000E+00 0. -1.
        6    1    1    2  501    0 -0.18197242820E+02  0.13227037217E+02  0.18437422281E+03  0.25382858034E+03  0.17300000000E+03 0. -1.
       -6    1    1    2    0  504 -0.17879880411E+03  0.93720916086E+02  0.74410062416E+02  0.27607694553E+03  0.17300000000E+03 0. -1.
        6    1    1    2  502    0  0.23449847764E+03 -0.54931678262E+02  0.43256079459E+03  0.52444720069E+03  0.17300000000E+03 0.  1.
       -6    1    1    2    0  503 -0.37502430701E+02 -0.52016275040E+02  0.38326445894E+03  0.42536192903E+03  0.17300000000E+03 0.  1.
</event>
<event>
 6   0  0.4500850E-05  0.6434450E+03  0.7546771E-02  0.9819158E-01
       -2   -1    0    0    0  501  0.00000000000E+00  0.00000000000E+00  0.84951416251E+03  0.84951416251E+03  0.00000000000E+00 0.  1.
        2   -1    0    0  503    0  0.00000000000E+00  0.00000000000E+00 -0.72365133459E+03  0.72365133459E+03  0.00000000000E+00 0. -1.
        6    1    1    2  502    0 -0.16886540832E+03  0.44672792262E+02  0.39555047518E+03  0.46572563050E+03  0.17300000000E+03 0.  1.
       -6    1    1    2    0  501  0.57863760144E+02  0.76938609737E+01  0.65538960074E+02  0.19398908609E+03  0.17300000000E+03 0. -1.
        6    1    1    2  503    0 -0.24048216783E+03 -0.25908676245E+03 -0.23810876990E+03  0.45998087984E+03  0.17300000000E+03 0.  1.
       -6    1    1    2    0  502  0.35148381600E+03  0.20672010921E+03 -0.97117837438E+02  0.45346990067E+03  0.17300000000E+03 0. -1.
</event>
<event>
 6   0  0.4500850E-05  0.2652170E+03  0.7546771E-02  0.1105665E+00
       21   -1    0    0  501  503  0.00000000000E+00  0.00000000000E+00  0.31193150853E+04  0.31193150853E+04  0.00000000000E+00 0.  1.
       21   -1    0    0  502  504  0.00000000000E+00  0.00000000000E+00 -0.63412474079E+03  0.63412474079E+03  0.00000000000E+00 0. -1.
        6    1    1    2  501    0 -0.53022168999E+02  0.12937767399E+02  0.29903751223E+03  0.34975873105E+03  0.17300000000E+03 0. -1.
       -6    1    1    2    0  503  0.35725507516E+03  0.79377750605E+02 -0.12460091655E+03  0.42354032207E+03  0.17300000000E+03 0. -1.
        6    1    1    2  502    0 -0.56109588802E+02  0.51088346071E+02 -0.29645518580E+03  0.35152948987E+03  0.17300000000E+03 0. -1.
       -6    1    1    2    0  504 -0.24812331736E+03 -0.14340386408E+03  0.26072089346E+04  0.26286112831E+04  0.17300000000E+03 0.  1.
</event>
<event>
 6   0  0.4500850E-05  0.4176190E+03  0.7546771E-02  0.1063531E+00
       21   -1    0    0  502  503  0.00000000000E+00  0.00000000000E+00  0.18290776011E+04  0.18290776011E+04  0.00000000000E+00 0.  1.
       21   -1    0    0  501  504  0.00000000000E+00  0.00000000000E+00 -0.27902207402E+03  0.27902207402E+03  0.00000000000E+00 0.  1.
        6    1    1    2  501    0 -0.86206017772E+02 -0.54585650418E+02 -0.27707549134E+01  0.20086748820E+03  0.17300000000E+03 0. -1.
       -6    1    1    2    0  504 -0.17634799390E+02  0.18356383318E+03  0.31106710994E+03  0.40087206674E+03  0.17300000000E+03 0. -1.
        6    1    1    2  502    0  0.69865687815E+02 -0.44783500891E+03  0.77338104282E+03  0.91295380328E+03  0.17300000000E+03 0.  1.
       -6    1    1    2    0  503  0.33975129347E+02  0.31885682614E+03  0.46837812923E+03  0.59340631689E+03  0.17300000000E+03 0.  1.
</event>
<event>
 6   0  0.4500850E-05  0.2983102E+03  0.7546771E-02  0.1086718E+00
       21   -1    0    0  501  503  0.00000000000E+00  0.00000000000E+00  0.22142689288E+04  0.22142689288E+04  0.00000000000E+00 0. -1.
       21   -1    0    0  502  504  0.00000000000E+00  0.00000000000E+00 -0.41766279592E+03  0.41766279592E+03  0.00000000000E+00 0.  1.
        6    1    1    2  501    0 -0.76644366025E+02  0.97761071206E+02  0.54837491736E+03  0.58828193570E+03  0.17300000000E+03 0.  1.
       -6    1    1    2    0  504 -0.17909016920E+03  0.25298608800E+03 -0.14944856657E+03  0.38514818379E+03  0.17300000000E+03 0.  1.
        6    1    1    2  502    0  0.10699158144E+03  0.41599270341E+02  0.10913811174E+04  0.11109542930E+04  0.17300000000E+03 0. -1.
       -6    1    1    2    0  503  0.14874295378E+03 -0.39234642955E+03  0.30629866468E+03  0.54754731217E+03  0.17300000000E+03 0. -1.
</event>
<event>
 6   0  0.4500850E-05  0.3437641E+03  0.7546771E-02  0.1068667E+00
       21   -1    0    0  502  503  0.00000000000E+00  0.00000000000E+00  0.13149699070E+04  0.13149699070E+04  0.00000000000E+00 0.  1.
       21   -1    0    0  503  504  0.00000000000E+00  0.00000000000E+00 -0.12921682162E+04  0.12921682162E+04  0.00000000000E+00 0.  1.
        6    1    1    2  501    0  0.76710094111E+02 -0.31352097740E+03 -0.43607929033E+03  0.56945060300E+03  0.17300000000E+03 0. -1.
       -6    1    1    2    0  501  0.20784992284E+03  0.20731656249E+03  0.94964292179E+03  0.10089263731E+04  0.17300000000E+03 0.  1.
        6    1    1    2  502    0 -0.68905516853E+02  0.18258054624E+03  0.16803077377E+03  0.31023695307E+03  0.17300000000E+03 0. -1.
       -6    1    1    2    0  504 -0.21565450010E+03 -0.76376131326E+02 -0.65879271440E+03  0.71852419402E+03  0.17300000000E+03 0.  1.
</event>
<event>
 6   0  0.4500850E-05  0.5234086E+03  0.7546771E-02  0.1029215E+00
       21   -1    0    0  501  503  0.00000000000E+00  0.00000000000E+00  0.27156592639E+04  0.27156592639E+04  0.00000000000E+00 0.  1.
       21   -1    0    0  502  504  0.00000000000E+00  0.00000000000E+00 -0.88133802539E+03  0.88133802539E+03  0.00000000000E+00 0. -1.
        6    1    1    2  501    0 -0.15706424676E+03  0.42359874526E+02 -0.23546947424E+03  0.33442250205E+03  0.17300000000E+03 0. -1.
       -6    1    1    2    0  503  0.54297811035E+02  0.20481367372E+03  0.23771606090E+04  0.23928473529E+04  0.17300000000E+03 0.  1.
        6    1    1    2  502    0  0.32723529896E+03 -0.15102927084E+03  0.50796942077E+02  0.40299145259E+03  0.17300000000E+03 0. -1.
       -6    1    1    2    0  504 -0.22446886323E+03 -0.96144277404E+02 -0.35816683830E+03  0.46673598179E+03  0.17300000000E+03 0. -1.
</event>
<event>
 6   0  0.4500850E-05  0.3680722E+03  0.7546771E-02  0.1064921E+00
       21   -1    0    0  502  503  0.00000000000E+00  0.00000000000E+00  0.63280427636E+03  0.63280427636E+03  0.00000000000E+00 0.  1.
       21   -1    0    0  501  504  0.00000000000E+00  0.00000000000E+00 -0.21393726439E+04  0.21393726439E+04  0.00000000000E+00 0. -1.
        6    1    1    2  501    0 -0.41376654609E+01 -0.10291091528E+03  0.11950951574E+03  0.23413521972E+03  0.17300000000E+03 0.  1.
       -6    1    1    2    0  503 -0.14421782566E+03  0.65322996048E+02  0.28469675322E+03  0.36884565382E+03  0.17300000000E+03 0. -1.
        6    1    1    2  502    0  0.20010803278E+03  0.15806728984E+03 -0.19270281949E+04  0.19515109933E+04  0.17300000000E+03 0. -1.
       -6    1    1    2    0  504 -0.51752541653E+02 -0.12047937061E+03  0.16253558457E+02  0.21768505339E+03  0.17300000000E+03 0.  1.
</event>
<event>
 6   0  0.4500850E-05  0.4911442E+03  0.7546771E-02  0.1031470E+00
       21   -1    0    0  504  503  0.00000000000E+00  0.00000000000E+00  0.51183719192E+03  0.51183719192E+03  0.00000000000E+00 0. -1.
       21   -1    0    0  501  504  0.00000000000E+00  0.00000000000E+00 -0.94309337296E+03  0.94309337296E+03  0.00000000000E+00 0. -1.
        6    1    1    2  501    0  0.17737516449E+03  0.12406382949E+03  0.88261441009E+02  0.29081414122E+03  0.17300000000E+03 0. -1.
       -6    1    1    2    0  502 -0.45698071947E+03  0.22911802798E+02 -0.46239928378E+03  0.67312586217E+03  0.17300000000E+03 0. -1.
        6    1    1    2  502    0  0.12105661263E+03 -0.18043112958E+02  0.18618929381E+02  0.21273439289E+03  0.17300000000E+03 0.  1.
       -6    1    1    2    0  503  0.15854894235E+03 -0.12893251933E+03 -0.75737267645E+02  0.27825616861E+03  0.17300000000E+03 0. -1.
</event>
<event>
 6   0  0.4500850E-05  0.7503985E+03  0.7546771E-02  0.9634725E-01
        2   -1    0    0  503    0  0.00000000000E+00  0.00000000000E+00  0.15870520700E+04  0.15870520700E+04  0.00000000000E+00 0.  1.
       -2   -1    0    0    0  501  0.00000000000E+00  0.00000000000E+00 -0.10165172231E+04  0.10165172231E+04  0.00000000000E+00 0. -1.
        6    1    1    2  502    0  0.22383307953E+03 -0.19924556283E+03  0.34477747347E+03  0.48846755063E+03  0.17300000000E+03 0.  1.
       -6    1    1    2    0  501  0.10534975019E+03  0.81131977701E+02  0.81068214121E+03  0.83953290689E+03  0.17300000000E+03 0. -1.
        6    1    1    2  503    0 -0.53509002406E+03  0.19795333999E+02 -0.75568067780E+03  0.94217592619E+03  0.17300000000E+03 0. -1.
       -6    1    1    2    0  502  0.20590719433E+03  0.98318251130E+02  0.17075591007E+03  0.33339290935E+03  0.17300000000E+03 0.  1.
</event>
<event>
 6   0  0.4500850E-05  0.2111716E+03  0.7546771E-02  0.1147563E+00
       21   -1    0    0  504  503  0.00000000000E+00  0.00000000000E+00  0.91691316334E+03  0.91691316334E+03  0.00000000000E+00 0. -1.
       21   -1    0    0  502  504  0.00000000000E+00  0.00000000000E+00 -0.42433310702E+03  0.42433310702E+03  0.00000000000E+00 0. -1.
        6    1    1    2  501    0 -0.76589583889E+02 -0.50388865971E+02  0.15553058535E+03  0.25004752579E+03  0.17300000000E+03 0. -1.
       -6    1    1    2    0  501 -0.30896243278E+02 -0.91979562807E+02 -0.11567423205E+02  0.19868976597E+03  0.17300000000E+03 0.  1.
        6    1    1    2  502    0  0.72855549580E+02  0.11263930133E+03 -0.21156921819E+03  0.30444388218E+03  0.17300000000E+03 0. -1.
       -6    1    1    2    0  503  0.34630277586E+02  0.29729127448E+02  0.56018611236E+03  0.58806509642E+03  0.17300000000E+03 0. -1.
</event>
<event>
 6   0  0.4500850E-05  0.4536371E+03  0.7546771E-02  0.1026668E+00
       -1   -1    0    0    0  501  0.00000000000E+00  0.00000000000E+00  0.49048087487E+03  0.49048087487E+03  0.00000000000E+00 0.  1.
        1   -1    0    0  502    0  0.00000000000E+00  0.00000000000E+00 -0.70465704904E+03  0.70465704904E+03  0.00000000000E+00 0. -1.
        6    1    1    2  502    0  0.12440020650E+03 -0.12325729168E+02 -0.26182374781E+03  0.33779877131E+03  0.17300000000E+03 0.  1.
       -6    1    1    2    0  503  0.13797040333E+03 -0.87248246497E+02 -0.22554447747E+03  0.32779170220E+03  0.17300000000E+03 0. -1.
        6    1    1    2  503    0 -0.13267563375E+03  0.44782254351E+02  0.86898599534E+02  0.23893229312E+03  0.17300000000E+03 0. -1.
       -6    1    1    2    0  501 -0.12969497608E+03  0.54791721314E+02  0.18629345157E+03  0.29061515729E+03  0.17300000000E+03 0. -1.
</event>
<event>
 6   0  0.4500850E-05  0.3006477E+03  0.7546771E-02  0.1093872E+00
       21   -1    0    0  501  503  0.00000000000E+00  0.00000000000E+00  0.63421143514E+03  0.63421143514E+03  0.00000000000E+00 0. -1.
       21   -1    0    0  502  504  0.00000000000E+00  0.00000000000E+00 -0.15408461611E+04  0.15408461611E+04  0.00000000000E+00 0. -1.
        6    1    1    2  501    0  0.76281860711E+02 -0.16110793761E+03  0.15785432948E+02  0.24890333411E+03  0.17300000000E+03 0.  1.
       -6    1    1    2    0  504 -0.26718626211E+03 -0.15643166630E+03  0.32028741995E+03  0.47788324543E+03  0.17300000000E+03 0. -1.
        6    1    1    2  502    0  0.79980779361E+02  0.45069026315E+02 -0.10248188622E+04  0.10433651530E+04  0.17300000000E+03 0. -1.
       -6    1    1    2    0  503  0.11092362204E+03  0.27247057760E+03 -0.21788871660E+03  0.40490586363E+03  0.17300000000E+03 0. -1.
</event>
<event>
 6   0  0.4500850E-05  0.1973735E+03  0.7546771E-02  0.1156644E+00
       21   -1    0    0  504  503  0.00000000000E+00  0.00000000000E+00  0.57578510830E+03  0.57578510830E+03  0.00000000000E+00 0. -1.
       21   -1    0    0  501  504  0.00000000000E+00  0.00000000000E+00 -0.90105566782E+03  0.90105566782E+03  0.00000000000E+00 0. -1.
        6    1    1    2  501    0 -0.87968413555E+02 -0.17499155664E+02 -0.59447352254E+03  0.62559765923E+03  0.17300000000E+03 0. -1.
       -6    1    1    2    0  502  0.35672547841E+02 -0.87036436644E+02  0.64103116792E+02  0.20708954960E+03  0.17300000000E+03 0. -1.
        6    1    1    2  502    0 -0.16626503893E+02  0.22711105377E+02 -0.15277542432E+03  0.23251143029E+03  0.17300000000E+03 0. -1.
       -6    1    1    2    0  503  0.68922369607E+02  0.81824486930E+02  0.35787527054E+03  0.41164213700E+03  0.17300000000E+03 0. -1.
</event>
<event>
 6   0  0.4500850E-05  0.2511456E+03  0.7546771E-02  0.1122938E+00
       21   -1    0    0  502  503  0.00000000000E+00  0.00000000000E+00  0.11063278750E+04  0.11063278750E+04  0.00000000000E+00 0. -1.
       21   -1    0    0  501  504  0.00000000000E+00  0.00000000000E+00 -0.27671988330E+03  0.27671988330E+03  0.00000000000E+00 0. -1.
        6    1    1    2  501    0  0.12676417030E+03  0.14286884901E+03  0.21133714960E+03  0.33327624231E+03  0.17300000000E+03 0.  1.
       -6    1    1    2    0  503 -0.63606014797E+02 -0.17072859046E+03 -0.52518707127E+02  0.25667331633E+03  0.17300000000E+03 0. -1.
        6    1    1    2  502    0  0.40908354618E+02 -0.76766597018E+02  0.34822261246E+03  0.39844019843E+03  0.17300000000E+03 0. -1.
       -6    1    1    2    0  504 -0.10406651012E+03  0.10462633847E+03  0.32256693675E+03  0.39465800120E+03  0.17300000000E+03 0.  1.
</event>
<event>
 6   0  0.4500850E-05  0.5457169E+03  0.7546771E-02  0.1021532E+00
       21   -1    0    0  502  503  0.00000000000E+00  0.00000000000E+00  0.11562245018E+04  0.11562245018E+04  0.00000000000E+00 0. -1.
       21   -1    0    0  501  504  0.00000000000E+00  0.00000000000E+00 -0.21714981440E+04  0.21714981440E+04  0.00000000000E+00 0. -1.
        6    1    1    2  501    0  0.81357845573E+02 -0.60447766509E+03 -0.16820009022E+04  0.17975172827E+04  0.17300000000E+03 0. -1.
       -6    1    1    2    0  504 -0.33469042491E+03  0.30836246571E+03  0.45954292494E+03  0.66948770761E+03  0.17300000000E+03 0. -1.
        6    1    1    2  502    0  0.10928019967E+03  0.39132617798E+03  0.36232183774E+03  0.57121314211E+03  0.17300000000E+03 0.  1.
       -6    1    1    2    0  503  0.14405237967E+03 -0.95210978601E+02 -0.15513750267E+03  0.28950451338E+03  0.17300000000E+03 0.  1.
</event>
<event>
 6   0  0.4500850E-05  0.2887619E+03  0.7546771E-02  0.1099199E+00
       21   -1    0    0  502  503  0.00000000000E+00  0.00000000000E+00  0.69183848017E+03  0.69183848017E+03  0.00000000000E+00 0.  1.
       21   -1    0    0  501  504  0.00000000000E+00  0.00000000000E+00 -0.79625440133E+03  0.79625440133E+03  0.00000000000E+00 0.  1.
        6    1    1    2  501    0  0.81158394862E+02  0.78258697536E+02 -0.42050961311E+03  0.46847459218E+03  0.17300000000E+03 0.  1.
       -6    1    1    2    0  504  0.21418569000E+03 -0.16014989287E+03  0.19888560756E+03  0.37551029663E+03  0.17300000000E+03 0.  1.
        6    1    1    2  502    0  0.44389779370E+02  0.15882547150E+03  0.85679961813E+02  0.25390163206E+03  0.17300000000E+03 0. -1.
       -6    1    1    2    0  503 -0.33973386423E+03 -0.76934276164E+02  0.31528122588E+02  0.39020636062E+03  0.17300000000E+03 0. -1.
</event>
<event>
 6   0  0.4500850E-05  0.4398316E+03  0.7546771E-02  0.1042747E+00
       21   -1    0    0  502  503  0.00000000000E+00  0.00000000000E+00  0.25301619702E+04  0.25301619702E+04  0.00000000000E+00 0. -1.
       21   -1    0    0  501  504  0.00000000000E+00  0.00000000000E+00 -0.25471632778E+03  0.25471632778E+03  0.00000000000E+00 0. -1.
        6    1    1    2  501    0  0.63937353433E+02 -0.15243623054E+03  0.16397008842E+03  0.29006892188E+03  0.17300000000E+03 0. -1.
       -6    1    1    2    0  504  0.66738545619E+02 -0.14753280657E+03  0.53570130288E+02  0.24293769025E+03  0.17300000000E+03 0. -1.
        6    1    1    2  502    0 -0.30582209391E+03  0.18228779696E+03  0.18910547725E+04  0.19320385987E+04  0.17300000000E+03 0. -1.
       -6    1    1    2    0  503  0.17514619486E+03  0.11768124015E+03  0.16685065121E+03  0.31983308720E+03  0.17300000000E+03 0.  1.
</event>
<event>
 6   0  0.4500850E-05  0.3363778E+03  0.7546771E-02  0.1073208E+00
       21   -1    0    0  504  503  0.00000000000E+00  0.00000000000E+00  0.19619166254E+04  0.19619166254E+04  0.00000000000E+00 0. -1.
       21   -1    0    0  502  504  0.00000000000E+00  0.00000000000E+00 -0.35343783369E+03  0.35343783369E+03  0.00000000000E+00 0.  1.
        6    1    1    2  501    0  0.83769526490E+02 -0.13947752018E+03 -0.17249851283E+02  0.23811314448E+03  0.17300000000E+03 0.  1.
       -6    1    1    2    0  501 -0.21713207061E+03  0.23381047461E+02  0.84122010683E+03  0.88615646339E+03  0.17300000000E+03 0.  1.
        6    1    1    2  502    0 -0.44907609379E+02 -0.31686919110E+03  0.49410118324E+03  0.61358598169E+03  0.17300000000E+03 0.  1.
       -6    1    1    2    0  503  0.17827015349E+03  0.43296566382E+03  0.29040735291E+03  0.57749886952E+03  0.17300000000E+03 0.  1.
</event>
<event>
 6   0  0.4500850E-05  0.2885731E+03  0.7546771E-02  0.1100055E+00
       21   -1    0    0  501  503  0.00000000000E+00  0.00000000000E+00  0.43612930802E+03  0.43612930802E+03  0.00000000000E+00 0. -1.
       21   -1    0    0  502  504  0.00000000000E+00  0.00000000000E+00 -0.99520203519E+03  0.99520203519E+03  0.00000000000E+00 0.  1.
        6    1    1    2  501    0  0.15112726323E+03  0.15535653535E+02 -0.43819942949E+03  0.49500358203E+03  0.17300000000E+03 0.  1.
       -6    1    1    2    0  503  0.67379314613E+02  0.24654517516E+03 -0.17003121207E+02  0.30909966283E+03  0.17300000000E+03 0.  1.
        6    1    1    2  502    0 -0.23784333861E+03 -0.31928083469E+03 -0.91085404539E+02  0.44354848217E+03  0.17300000000E+03 0.  1.
       -6    1    1    2    0  504  0.19336760765E+02  0.57200005991E+02 -0.12784771938E+02  0.18367961617E+03  0.17300000000E+03 0. -1.
</event>
<event>
 6   0  0.4500850E-05  0.5785353E+03  0.7546771E-02  0.1011405E+00
       21   -1    0    0  501  503  0.00000000000E+00  0.00000000000E+00  0.25846414760E+04  0.25846414760E+04  0.00000000000E+00 0. -1.
       21   -1    0    0  502  504  0.00000000000E+00  0.00000000000E+00 -0.22462958270E+03  0.22462958270E+03  0.00000000000E+00 0.  1.
        6    1    1    2  501    0 -0.46961550563E+02  0.17397197677E+03  0.64250311723E+03  0.68935541746E+03  0.17300000000E+03 0. -1.
       -6    1    1    2    0  503  0.20896373201E+03 -0.21666927794E+03  0.35446990508E+03  0.49617469797E+03  0.17300000000E+03 0.  1.
        6    1    1    2  502    0 -0.11200606640E+03 -0.31907144872E+03  0.29232977025E+03  0.47930954807E+03  0.17300000000E+03 0.  1.
       -6    1    1    2    0  504 -0.49996115052E+02  0.36176874989E+03  0.10707091008E+04  0.11444313952E+04  0.17300000000E+03 0. -1.
</event>
<event>
 6   0  0.4500850E-05  0.2073074E+03  0.7546771E-02  0.1144972E+00
       21   -1    0    0  501  503  0.00000000000E+00  0.00000000000E+00  0.16223422694E+03  0.16223422694E+03  0.00000000000E+00 0.  1.
       21   -1    0    0  502  504  0.00000000000E+00  0.00000000000E+00 -0.15543840989E+04  0.15543840989E+04  0.00000000000E+00 0. -1.
        6    1    1    2  501    0 -0.10225568470E+01 -0.46932953786E+02 -0.10896232407E+02  0.17958695847E+03  0.17300000000E+03 0.  1.
       -6    1    1    2    0  503  0.15631297091E+03  0.55009888326E+02 -0.66181212362E+03  0.70383529299E+03  0.17300000000E+03 0. -1.
        6    1    1    2  502    0 -0.33250880075E+02  0.73013270856E+02 -0.28083078174E+03  0.33945763612E+03  0.17300000000E+03 0.  1.
       -6    1    1    2    0  504 -0.12203953399E+03 -0.81090205396E+02 -0.43861073423E+03  0.49373843830E+03  0.17300000000E+03 0. -1.
</event>
<event>
 6   0  0.4500850E-05  0.3193920E+03  0.7546771E-02  0.1078377E+00
       21   -1    0    0  502  503  0.00000000000E+00  0.00000000000E+00  0.57947648539E+03  0.57947648539E+03  0.00000000000E+00 0. -1.
       21   -1    0    0  501  504  0.00000000000E+00  0.00000000000E+00 -0.36219300810E+03  0.36219300810E+03  0.00000000000E+00 0.  1.
        6    1    1    2  501    0 -0.95860411997E+02  0.15309321399E+03  0.47036989856E+02  0.25449602978E+03  0.17300000000E+03 0.  1.
       -6    1    1    2    0  503  0.80293674749E+01 -0.12982189372E+03  0.61547418794E+02  0.22502284238E+03  0.17300000000E+03 0. -1.
        6    1    1    2  502    0 -0.54805086799E+02 -0.10603099931E+03  0.51556694728E+02  0.21640994230E+03  0.17300000000E+03 0. -1.
       -6    1    1    2    0  504  0.14263613132E+03  0.82759679043E+02  0.57142373910E+02  0.24574067903E+03  0.17300000000E+03 0.  1.
</event>
<event>
 6   0  0.4500850E-05  0.2286055E+03  0.7546771E-02  0.1128866E+00
       21   -1    0    0  502  503  0.00000000000E+00  0.00000000000E+00  0.13010866251E+04  0.13010866251E+04  0.00000000000E+00 0. -1.
       21   -1    0    0  503  504  0.00000000000E+00  0.00000000000E+00 -0.34639427394E+03  0.34639427394E+03  0.00000000000E+00 0. -1.
        6    1    1    2  501    0  0.67641211875E+02  0.14390105307E+03  0.90530386090E+02  0.25180865240E+03  0.17300000000E+03 0.  1.
       -6    1    1    2    0  504 -0.12266914919E+01  0.71559046023E+02 -0.16442155252E+03  0.24916991948E+03  0.17300000000E+03 0. -1.
        6    1    1    2  502    0  0.85363455484E+02 -0.30300030435E+01  0.37284518378E+03  0.41980785071E+03  0.17300000000E+03 0.  1.
       -6    1    1    2    0  501 -0.15177797587E+03 -0.21243009605E+03  0.65573833380E+03  0.72669447643E+03  0.17300000000E+03 0. -1.
</event>
<event>
 6   0  0.4500850E-05  0.4196157E+03  0.7546771E-02  0.1043875E+00
       21   -1    0    0  501  503  0.00000000000E+00  0.00000000000E+00  0.95565746646E+03  0.95565746646E+03  0.00000000000E+00 0. -1.
       21   -1    0    0  502  504  0.00000000000E+00  0.00000000000E+00 -0.20857099955E+04  0.20857099955E+04  0.00000000000E+00 0.  1.
        6    1    1    2  501    0 -0.27840677953E+03 -0.10932680398E+03 -0.21748725703E+02  0.34621480619E+03  0.17300000000E+03 0.  1.
       -6    1    1    2    0  504 -0.48355604805E+03  0.61264983611E+02  0.48256432466E+03  0.70737343551E+03  0.17300000000E+03 0. -1.
        6    1    1    2  502    0  0.36640866492E+03  0.96209950876E+02 -0.14827399335E+04  0.15401163510E+04  0.17300000000E+03 0.  1.
       -6    1    1    2    0  503  0.39555416266E+03 -0.48148130509E+02 -0.10812819457E+03  0.44766286928E+03  0.17300000000E+03 0. -1.
</event>
<event>
 6   0  0.4500850E-05  0.4555202E+03  0.7546771E-02  0.1054721E+00
       21   -1    0    0  504  503  0.00000000000E+00  0.00000000000E+00  0.12513520064E+04  0.12513520064E+04  0.00000000000E+00 0. -1.
       21   -1    0    0  502  504  0.00000000000E+00  0.00000000000E+00 -0.77677536100E+03  0.77677536100E+03  0.00000000000E+00 0.  1.
        6    1    1    2  501    0 -0.77401470368E+02  0.57738912424E+02  0.24834079407E+03  0.31768997407E+03  0.17300000000E+03 0. -1.
       -6    1    1    2    0  503 -0.13676255009E+03 -0.20762579257E+03  0.61529704951E+03  0.68580749776E+03  0.17300000000E+03 0. -1.
        6    1    1    2  502    0 -0.23038122908E+03  0.32827456609E+03 -0.14790800345E+03  0.46113498993E+03  0.17300000000E+03 0.  1.
       -6    1    1    2    0  501  0.44454524953E+03 -0.17838768595E+03 -0.24115319472E+03  0.56349490566E+03  0.17300000000E+03 0. -1.
</event>
<event>
 6   0  0.4500850E-05  0.2086523E+03  0.7546771E-02  0.1144723E+00
       21   -1    0    0  502  503  0.00000000000E+00  0.00000000000E+00  0.16083232154E+03  0.16083232154E+03  0.00000000000E+00 0. -1.
       21   -1    0    0  501  504  0.00000000000E+00  0.00000000000E+00 -0.16201687543E+04  0.16201687543E+04  0.00000000000E+00 0. -1.
        6    1    1    2  501    0 -0.59829332259E+02 -0.67001593473E+02 -0.18094887610E+03  0.26597040867E+03  0.17300000000E+03 0.  1.
       -6    1    1    2    0  503  0.76361670143E+02 -0.77650736266E+02 -0.88876493729E+03  0.91197195969E+03  0.17300000000E+03 0. -1.
        6    1    1    2  502    0  0.11848270913E+03  0.10401525325E+03 -0.16472779274E+03  0.28621944548E+03  0.17300000000E+03 0. -1.
       -6    1    1    2    0  504 -0.13501504701E+03  0.40637076493E+02 -0.22489482666E+03  0.31683926203E+03  0.17300000000E+03 0. -1.
</event>
<event>
 6   0  0.4500850E-05  0.2553478E+03  0.7546771E-02  0.1118327E+00
       21   -1    0    0  501  503  0.00000000000E+00  0.00000000000E+00  0.24396842245E+04  0.24396842245E+04  0.00000000000E+00 0. -1.
       21   -1    0    0  502  504  0.00000000000E+00  0.00000000000E+00 -0.21905621589E+03  0.21905621589E+03  0.00000000000E+00 0. -1.
        6    1    1    2  501    0  0.97335814034E+02 -0.57738064719E+02  0.11187017112E+04  0.11376425025E+04  0.17300000000E+03 0.  1.
       -6    1    1    2    0  503  0.15004717927E+03 -0.13293547841E+03 -0.27106477178E+02  0.26617617950E+03  0.17300000000E+03 0. -1.
        6    1    1    2  502    0 -0.45695803808E+02  0.16572089175E+03  0.31577974163E+03  0.39899544568E+03  0.17300000000E+03 0.  1.
       -6    1    1    2    0  504 -0.20168718949E+03  0.24952651379E+02  0.81325303299E+03  0.85592631276E+03  0.17300000000E+03 0. -1.
</event>
<event>
 6   0  0.4500850E-05  0.2524478E+03  0.7546771E-02  0.1118950E+00
       21   -1    0    0  501  503  0.00000000000E+00  0.00000000000E+00  0.10441013384E+04  0.10441013384E+04  0.00000000000E+00 0. -1.
       21   -1    0    0  502  504  0.00000000000E+00  0.00000000000E+00 -0.17327008325E+04  0.17327008325E+04  0.00000000000E+00 0.  1.
        6    1    1    2  501    0 -0.19071292669E+03  0.52291266723E+01  0.51376719822E+03  0.57470383515E+03  0.17300000000E+03 0. -1.
       -6    1    1    2    0  504 -0.35417957150E+02  0.56453983411E+02  0.41827182802E+03  0.45751700083E+03  0.17300000000E+03 0. -1.
        6    1    1    2  502    0  0.45091162898E+02  0.13122375045E+03 -0.11894089777E+04  0.12099072699E+04  0.17300000000E+03 0.  1.
       -6    1    1    2    0  503  0.18103972095E+03 -0.19290686053E+03 -0.43122954260E+03  0.53467406502E+03  0.17300000000E+03 0.  1.
</event>
<event>
 6   0  0.4500850E-05  0.6798264E+03  0.7546771E-02  0.1011591E+00
       21   -1    0    0  501  503  0.00000000000E+00  0.00000000000E+00  0.33777550176E+03  0.33777550176E+03  0.00000000000E+00 0.  1.
       21   -1    0    0  502  504  0.00000000000E+00  0.00000000000E+00 -0.17696115727E+04  0.17696115727E+04  0.00000000000E+00 0.  1.
        6    1    1    2  501    0  0.41058602249E+03  0.30590679505E+03 -0.53623990690E+03  0.76134229285E+03  0.17300000000E+03 0.  1.
       -6    1    1    2    0  503 -0.36015613412E+03 -0.13324136457E+03 -0.31720475379E+03  0.52726991001E+03  0.17300000000E+03 0.  1.
        6    1    1    2  502    0 -0.17388094740E+03 -0.16291941599E+03 -0.12882281271E+03  0.32140572031E+03  0.17300000000E+03 0.  1.
       -6    1    1    2    0  504  0.12345105903E+03 -0.97460144891E+01 -0.44956859749E+03  0.49736915125E+03  0.17300000000E+03 0.  1.
</event>
<event>
 6   0  0.4500850E-05  0.2680069E+03  0.7546771E-02  0.1112821E+00
       21   -1    0    0  502  503  0.00000000000E+00  0.00000000000E+00  0.47448534614E+03  0.47448534614E+03  0.00000000000E+00 0. -1.
       21   -1    0    0  503  504  0.00000000000E+00  0.00000000000E+00 -0.93242338569E+03  0.93242338569E+03  0.00000000000E+00 0.  1.
        6    1    1    2  501    0  0.13736348902E+02 -0.39727277654E+02 -0.18516658074E+03  0.25687079727E+03  0.17300000000E+03 0.  1.
       -6    1    1    2    0  501 -0.15218775902E+03  0.36538835725E+02  0.23356788424E+03  0.33011991315E+03  0.17300000000E+03 0. -1.
        6    1    1    2  502    0 -0.15308104686E+03  0.10323920743E+03 -0.78415888119E+02  0.26489656919E+03  0.17300000000E+03 0.  1.
       -6    1    1    2    0  504  0.29153245698E+03 -0.10005076550E+03 -0.42792345493E+03  0.55502145223E+03  0.17300000000E+03 0. -1.
</event>
<event>
 6   0  0.4500850E-05  0.2543660E+03  0.7546771E-02  0.1115910E+00
       21   -1    0    0  501  503  0.00000000000E+00  0.00000000000E+00  0.32954340354E+03  0.32954340354E+03  0.00000000000E+00 0.  1.
       21   -1    0    0  503  504  0.00000000000E+00  0.00000000000E+00 -0.14706783417E+04  0.14706783417E+04  0.00000000000E+00 0. -1.
        6    1    1    2  501    0  0.22170947056E+03  0.34134408091E+02 -0.40408990740E+03  0.49349559311E+03  0.17300000000E+03 0.  1.
       -6    1    1    2    0  504 -0.14391307591E+02  0.97869180795E+02  0.11563669353E+03  0.23040471170E+03  0.17300000000E+03 0.  1.
        6    1    1    2  502    0 -0.15318723472E+03 -0.21589174927E+03 -0.81345933433E+03  0.87276609976E+03  0.17300000000E+03 0. -1.
       -6    1    1    2    0  502 -0.54130928254E+02  0.83888160384E+02 -0.39222389974E+02  0.20355534069E+03  0.17300000000E+03 0.  1.
</event>
<event>
 6   0  0.4500850E-05  0.2460286E+03  0.7546771E-02  0.1121817E+00
       21   -1    0    0  501  503  0.00000000000E+00  0.00000000000E+00  0.67769317487E+03  0.67769317487E+03  0.00000000000E+00 0.  1.
       21   -1    0    0  503  504  0.00000000000E+00  0.00000000000E+00 -0.36784458488E+03  0.36784458488E+03  0.00000000000E+00 0.  1.
        6    1    1    2  501    0 -0.16675086479E+03  0.34922670199E+02  0.19843441069E+03  0.31357719807E+03  0.17300000000E+03 0.  1.
       -6    1    1    2    0  502  0.46265179488E+02  0.60020592385E+02  0.39642680796E+02  0.19298570021E+03  0.17300000000E+03 0. -1.
        6    1    1    2  502    0  0.17064130188E+03 -0.20756061674E+03  0.19297914623E+02  0.32015820001E+03  0.17300000000E+03 0.  1.
       -6    1    1    2    0  504 -0.50155616579E+02  0.11261735415E+03  0.52473583876E+02  0.21881666147E+03  0.17300000000E+03 0. -1.
</event>
<event>
 6   0  0.4500850E-05  0.4438715E+03  0.7546771E-02  0.1050266E+00
       21   -1    0    0  501  503  0.00000000000E+00  0.00000000000E+00  0.20750753169E+04  0.20750753169E+04  0.00000000000E+00 0.  1.
       21   -1    0    0  502  504  0.00000000000E+00  0.00000000000E+00 -0.49141591525E+03  0.49141591525E+03  0.00000000000E+00 0. -1.
        6    1    1    2  501    0  0.21585456610E+03 -0.21096667003E+03  0.78225352830E+03  0.85612482274E+03  0.17300000000E+03 0.  1.
       -6    1    1    2    0  503  0.35937103925E+03 -0.15392055282E+03  0.24482717612E+03  0.49265446979E+03  0.17300000000E+03 0.  1.
        6    1    1    2  502    0  0.39575756718E+02 -0.80269562717E+02 -0.81483214629E+02  0.21113492720E+03  0.17300000000E+03 0.  1.
       -6    1    1    2    0  504 -0.61480136208E+03  0.44515678557E+03  0.63806191183E+03  0.10065770124E+04  0.17300000000E+03 0. -1.
</event>
<event>
 6   0  0.4500850E-05  0.1107386E+04  0.7546771E-02  0.9220000E-01
       21   -1    0    0  501  503  0.00000000000E+00  0.00000000000E+00  0.20900011585E+04  0.20900011585E+04  0.00000000000E+00 0.  1.
       21   -1    0    0  503  504  0.00000000000E+00  0.00000000000E+00 -0.67569508656E+03  0.67569508656E+03  0.00000000000E+00 0. -1.
        6    1    1    2  501    0 -0.13568068627E+03 -0.53231848532E+03  0.60573906206E+03  0.83583552793E+03  0.17300000000E+03 0. -1.
       -6    1    1    2    0  504  0.31195617029E+03  0.85672807048E+03  0.60060625305E+02  0.92996554648E+03  0.17300000000E+03 0. -1.
        6    1    1    2  502    0  0.23696531782E+01  0.26626744341E+02  0.54448395038E+02  0.18332546602E+03  0.17300000000E+03 0. -1.
       -6    1    1    2    0  502 -0.17864513720E+03 -0.35103632950E+03  0.69405798958E+03  0.81656970466E+03  0.17300000000E+03 0.  1.
</event>
<event>
 6   0  0.4500850E-05  0.3691968E+03  0.7546771E-02  0.1068982E+00
       21   -1    0    0  501  503  0.00000000000E+00  0.00000000000E+00  0.79768437930E+03  0.79768437930E+03  0.00000000000E+00 0.  1.
       21   -1    0    0  503  504  0.00000000000E+00  0.00000000000E+00 -0.52146302927E+03  0.52146302927E+03  0.00000000000E+00 0.  1.
        6    1    1    2  501    0  0.16153020653E+03  0.31787051060E+03 -0.67093419616E+02  0.40195048960E+03  0.17300000000E+03 0.  1.
       -6    1    1    2    0  504 -0.17029330044E+03 -0.23127929657E+03  0.10459182712E+03  0.35122410438E+03  0.17300000000E+03 0.  1.
        6    1    1    2  502    0  0.18476936125E+03 -0.46555603917E+02  0.78703415050E+02  0.26912890713E+03  0.17300000000E+03 0. -1.
       -6    1    1    2    0  502 -0.17600626734E+03 -0.40035610120E+02  0.16001952748E+03  0.29684390746E+03  0.17300000000E+03 0.  1.
</event>
<event>
 6   0  0.4500850E-05  0.2226047E+03  0.7546771E-02  0.1132734E+00
       21   -1    0    0  504  503  0.00000000000E+00  0.00000000000E+00  0.98189036279E+02  0.98189036279E+02  0.00000000000E+00 0. -1.
       21   -1    0    0  501  504  0.00000000000E+00  0.00000000000E+00 -0.24375711097E+04  0.24375711097E+04  0.00000000000E+00 0.  1.
        6    1    1    2  501    0  0.54980848929E+02 -0.99036089126E+02 -0.92796311690E+03  0.95072371751E+03  0.17300000000E+03 0. -1.
       -6    1    1    2    0  503  0.66832732536E+02  0.76578665766E+02 -0.43549136471E+03  0.47949205930E+03  0.17300000000E+03 0.  1.
        6    1    1    2  502    0 -0.23064460345E+03 -0.49825481222E+02 -0.45081133951E+03  0.53743778757E+03  0.17300000000E+03 0. -1.
       -6    1    1    2    0  502  0.10883102198E+03  0.72282904582E+02 -0.52511625230E+03  0.56810658161E+03  0.17300000000E+03 0.  1.
</event>
<event>
 6   0  0.4500850E-05  0.1986641E+03  0.7546771E-02  0.1153653E+00
       21   -1    0    0  504  503  0.00000000000E+00  0.00000000000E+00  0.91298076216E+03  0.91298076216E+03  0.00000000000E+00 0.  1.
       21   -1    0    0  502  504  0.00000000000E+00  0.00000000000E+00 -0.62613133318E+03  0.62613133318E+03  0.00000000000E+00 0.  1.
        6    1    1    2  501    0  0.80513958836E+02 -0.16993537904E+01 -0.12718765140E+03  0.22932746028E+03  0.17300000000E+03 0.  1.
       -6    1    1    2    0  503  0.33360853869E+02  0.34847682013E+02  0.11261715515E+03  0.21198804482E+03  0.17300000000E+03 0.  1.
        6    1    1    2  502    0 -0.16878802508E+02 -0.98356551718E+02 -0.35590419307E+03  0.40811236184E+03  0.17300000000E+03 0.  1.
       -6    1    1    2    0  501 -0.96996010197E+02  0.65208223495E+02  0.65732411830E+03  0.68968422840E+03  0.17300000000E+03 0.  1.
</event>
<event>
 6   0  0.4500850E-05  0.2736133E+03  0.7546771E-02  0.1106377E+00
       21   -1    0    0  504  503  0.00000000000E+00  0.00000000000E+00  0.21309828933E+04  0.21309828933E+04  0.00000000000E+00 0. -1.
       21   -1    0    0  502  504  0.00000000000E+00  0.00000000000E+00 -0.21019526451E+03  0.21019526451E+03  0.00000000000E+00 0.  1.
        6    1    1    2  501    0  0.15003078547E+03  0.26375349590E+03  0.55560666778E+03  0.65627959931E+03  0.17300000000E+03 0. -1.
       -6    1    1    2    0  501  0.16996268203E+03 -0.16540058020E+03  0.40832053467E+03  0.50289096655E+03  0.17300000000E+03 0. -1.
        6    1    1    2  502    0 -0.19193189966E+03 -0.23633603897E+02  0.73418825780E+02  0.26965853467E+03  0.17300000000E+03 0.  1.
       -6    1    1    2    0  503 -0.12806156783E+03 -0.74719311811E+02  0.88344160059E+03  0.91234905731E+03  0.17300000000E+03 0. -1.
</event>
<event>
 6   0  0.4500850E-05  0.4313763E+03  0.7546771E-02  0.1053054E+00
       21   -1    0    0  501  503  0.00000000000E+00  0.00000000000E+00  0.73106342978E+03  0.73106342978E+03  0.00000000000E+00 0.  1.
       21   -1    0    0  502  504  0.00000000000E+00  0.00000000000E+00 -0.37082196552E+03  0.37082196552E+03  0.00000000000E+00 0.  1.
        6    1    1    2  501    0  0.13439005338E+03  0.25979055313E+03  0.14537198011E+03  0.36961308221E+03  0.17300000000E+03 0.  1.
       -6    1    1    2    0  504 -0.18639888317E+02 -0.99766437479E+02  0.10824331182E+02  0.20086551130E+03  0.17300000000E+03 0.  1.
        6    1    1    2  502    0  0.54080500892E+02 -0.12776377145E+03  0.14947601354E+02  0.22226271090E+03  0.17300000000E+03 0.  1.
       -6    1    1    2    0  503 -0.16983066595E+03 -0.32260344206E+02  0.18909755161E+03  0.30914409089E+03  0.17300000000E+03 0.  1.
</event>
<event>
 6   0  0.4500850E-05  0.3678069E+03  0.7546771E-02  0.1056629E+00
       21   -1    0    0  502  503  0.00000000000E+00  0.00000000000E+00  0.10586151160E+04  0.10586151160E+04  0.00000000000E+00 0.  1.
       21   -1    0    0  503  504  0.00000000000E+00  0.00000000000E+00 -0.20596046221E+04  0.20596046221E+04  0.00000000000E+00 0.  1.
        6    1    1    2  501    0  0.46538526131E+03 -0.18721518707E+03 -0.67738231470E+03  0.86047008547E+03  0.17300000000E+03 0. -1.
       -6    1    1    2    0  504  0.12105932715E+03  0.78852509261E+02 -0.10741306436E+04  0.10975239034E+04  0.17300000000E+03 0.  1.
        6    1    1    2  502    0 -0.55369519306E+02  0.14413976662E+03  0.49160594623E+03  0.54355079096E+03  0.17300000000E+03 0. -1.
       -6    1    1    2    0  501 -0.53107506916E+03 -0.35777088816E+02  0.25891750600E+03  0.61667495821E+03  0.17300000000E+03 0.  1.
</event>
<event>
 6   0  0.4500850E-05  0.2185116E+03  0.7546771E-02  0.1142292E+00
       21   -1    0    0  502  503  0.00000000000E+00  0.00000000000E+00  0.43928408736E+03  0.43928408736E+03  0.00000000000E+00 0.  1.
       21   -1    0    0  501  504  0.00000000000E+00  0.00000000000E+00 -0.51070022950E+03  0.51070022950E+03  0.00000000000E+00 0.  1.
        6    1    1    2  501    0 -0.12158318842E+03  0.38421551290E+01 -0.31950740377E+02  0.21388567898E+03  0.17300000000E+03 0. -1.
       -6    1    1    2    0  503 -0.50215466789E+02  0.47445470580E+02  0.14316037085E+03  0.23493947639E+03  0.17300000000E+03 0.  1.
        6    1    1    2  502    0  0.11641427993E+03  0.95094633273E+02 -0.56865804921E+02  0.23613130588E+03  0.17300000000E+03 0. -1.
       -6    1    1    2    0  504  0.55384375285E+02 -0.14638225898E+03 -0.12575996769E+03  0.26502785560E+03  0.17300000000E+03 0.  1.
</event>
<event>
 6   0  0.4500850E-05  0.2729651E+03  0.7546771E-02  0.1101716E+00
       21   -1    0    0  501  503  0.00000000000E+00  0.00000000000E+00  0.21593424720E+04  0.21593424720E+04  0.00000000000E+00 0. -1.
       21   -1    0    0  502  504  0.00000000000E+00  0.00000000000E+00 -0.10695696165E+04  0.10695696165E+04  0.00000000000E+00 0.  1.
        6    1    1    2  501    0 -0.17940637707E+03 -0.32409556193E+03  0.46447692717E+02  0.41147414203E+03  0.17300000000E+03 0. -1.
       -6    1    1    2    0  504 -0.93876762198E+02  0.66755429224E+02 -0.68912536526E+03  0.71978601185E+03  0.17300000000E+03 0.  1.
        6    1    1    2  502    0  0.22642400510E+03  0.17574207622E+03 -0.18846805902E+02  0.33531673017E+03  0.17300000000E+03 0.  1.
       -6    1    1    2    0  503  0.46859134162E+02  0.81598056490E+02  0.17512973339E+04  0.17623352045E+04  0.17300000000E+03 0. -1.
</event>
<event>
 6   0  0.4500850E-05  0.3014714E+03  0.7546771E-02  0.1099276E+00
       21   -1    0    0  502  503  0.00000000000E+00  0.00000000000E+00  0.17758762375E+04  0.17758762375E+04  0.00000000000E+00 0. -1.
       21   -1    0    0  501  504  0.00000000000E+00  0.00000000000E+00 -0.15249048575E+04  0.15249048575E+04  0.00000000000E+00 0. -1.
        6    1    1    2  501    0  0.18552949238E+03 -0.48010557998E+02  0.23632785629E+03  0.35000865972E+03  0.17300000000E+03 0.  1.
       -6    1    1    2    0  504  0.39971681377E+01  0.80146551247E+01 -0.11780796542E+04  0.11907480354E+04  0.17300000000E+03 0. -1.
        6    1    1    2  502    0 -0.37744499274E+03  0.33713018518E+02 -0.11131933938E+03  0.43118706553E+03  0.17300000000E+03 0. -1.
       -6    1    1    2    0  503  0.18791833222E+03  0.62828843558E+01  0.13040425173E+04  0.13288373344E+04  0.17300000000E+03 0. -1.
</event>
<event>
 6   0  0.4500850E-05  0.3179852E+03  0.7546771E-02  0.1086207E+00
       21   -1    0    0  501  503  0.00000000000E+00  0.00000000000E+00  0.16445820760E+04  0.16445820760E+04  0.00000000000E+00 0.  1.
       21   -1    0    0  503  504  0.00000000000E+00  0.00000000000E+00 -0.61174107223E+03  0.61174107223E+03  0.00000000000E+00 0. -1.
        6    1    1    2  501    0  0.14218189243E+03 -0.26105001681E+02  0.11771285702E+04  0.11985231881E+04  0.17300000000E+03 0.  1.
       -6    1    1    2    0  504 -0.26388597331E+03 -0.26399435758E+02 -0.15372075658E+03  0.35198268156E+03  0.17300000000E+03 0. -1.
        6    1    1    2  502    0  0.84047667921E+02  0.32519580196E+03  0.36444265611E+02  0.37957015766E+03  0.17300000000E+03 0.  1.
       -6    1    1    2    0  502  0.37656412961E+02 -0.27269136452E+03 -0.27011075428E+02  0.32624712093E+03  0.17300000000E+03 0. -1.
</event>
<event>
 6   0  0.4500850E-05  0.5244044E+03  0.7546771E-02  0.1040983E+00
       21   -1    0    0  502  503  0.00000000000E+00  0.00000000000E+00  0.12876129781E+04  0.12876129781E+04  0.00000000000E+00 0. -1.
       21   -1    0    0  501  504  0.00000000000E+00  0.00000000000E+00 -0.16551823390E+04  0.16551823390E+04  0.00000000000E+00 0.  1.
        6    1    1    2  501    0 -0.84401220191E+02 -0.30258877207E+00 -0.84283381528E+03  0.86453542305E+03  0.17300000000E+03 0.  1.
       -6    1    1    2    0  504  0.25069941315E+03  0.42073520884E+03 -0.34368123206E+03  0.62282750500E+03  0.17300000000E+03 0.  1.
        6    1    1    2  502    0  0.41103457519E+03 -0.30604978488E+03  0.59063321215E+03  0.80086982969E+03  0.17300000000E+03 0. -1.
       -6    1    1    2    0  503 -0.57733276815E+03 -0.11438283519E+03  0.22831247425E+03  0.65456255932E+03  0.17300000000E+03 0.  1.
</event>
<event>
 6   0  0.4500850E-05  0.2494395E+03  0.7546771E-02  0.1114816E+00
       21   -1    0    0  501  503  0.00000000000E+00  0.00000000000E+00  0.45955152450E+03  0.45955152450E+03  0.00000000000E+00 0. -1.
       21   -1    0    0  503  504  0.00000000000E+00  0.00000000000E+00 -0.78465301338E+03  0.78465301338E+03  0.00000000000E+00 0.  1.
        6    1    1    2  501    0  0.96170856001E+02  0.12912717249E+03  0.18161582671E+03  0.29805363398E+03  0.17300000000E+03 0. -1.
       -6    1    1    2    0  502  0.10173118375E+03 -0.15029054054E+03 -0.15479103783E+03  0.29466208734E+03  0.17300000000E+03 0. -1.
        6    1    1    2  502    0 -0.18527456006E+03  0.15756350912E+03 -0.95908759014E+02  0.31349706867E+03  0.17300000000E+03 0.  1.
       -6    1    1    2    0  504 -0.12627479692E+02 -0.13640014107E+03 -0.25601751875E+03  0.33799174788E+03  0.17300000000E+03 0.  1.
</event>
<event>
 6   0  0.4500850E-05  0.2416582E+03  0.7546771E-02  0.1124932E+00
       21   -1    0    0  501  503  0.00000000000E+00  0.00000000000E+00  0.69237751744E+03  0.69237751744E+03  0.00000000000E+00 0. -1.
       21   -1    0    0  502  504  0.00000000000E+00  0.00000000000E+00 -0.79646405729E+03  0.79646405729E+03  0.00000000000E+00 0.  1.
        6    1    1    2  501    0 -0.93073244928E+00 -0.80370430900E+02  0.47227431427E+03  0.50934497184E+03  0.17300000000E+03 0. -1.
       -6    1    1    2    0  504 -0.15634111351E+03 -0.28236318356E+02 -0.15488717114E+03  0.28135186019E+03  0.17300000000E+03 0.  1.
        6    1    1    2  502    0  0.70215114431E+01 -0.12467402494E+03 -0.25084853071E+03  0.32931276846E+03  0.17300000000E+03 0.  1.
       -6    1    1    2    0  503  0.15025033451E+03  0.23328077419E+03 -0.17062515228E+03  0.36883197424E+03  0.17300000000E+03 0.  1.
</event>
<event>
 6   0  0.4500850E-05  0.3026840E+03  0.7546771E-02  0.1089056E+00
       21   -1    0    0  502  503  0.00000000000E+00  0.00000000000E+00  0.10019343305E+04  0.10019343305E+04  0.00000000000E+00 0.  1.
       21   -1    0    0  503  504  0.00000000000E+00  0.00000000000E+00 -0.96784369133E+03  0.96784369133E+03  0.00000000000E+00 0.  1.
        6    1    1    2  501    0  0.64836866916E+01 -0.35630725495E+03  0.20250807997E+03  0.44489933758E+03  0.17300000000E+03 0.  1.
       -6    1    1    2    0  501 -0.21478187830E+03 -0.59091962780E+02  0.38898026407E+02  0.28471946152E+03  0.17300000000E+03 0. -1.
        6    1    1    2  502    0  0.68764987613E+02  0.26547393674E+03  0.43592147356E+03  0.54328773751E+03  0.17300000000E+03 0.  1.
       -6    1    1    2    0  504  0.13953320399E+03  0.14992528098E+03 -0.64323694080E+03  0.69687148521E+03  0.17300000000E+03 0.  1.
</event>
<event>
 6   0  0.4500850E-05  0.2484708E+03  0.7546771E-02  0.1116529E+00
       21   -1    0    0  502  503  0.00000000000E+00  0.00000000000E+00  0.14633796586E+04  0.14633796586E+04  0.00000000000E+00 0. -1.
       21   -1    0    0  501  504  0.00000000000E+00  0.00000000000E+00 -0.94939728636E+03  0.94939728636E+03  0.00000000000E+00 0.  1.
        6    1    1    2  501    0 -0.25472386757E+03  0.19762517847E+03  0.58192514891E+03  0.68739060134E+03  0.17300000000E+03 0. -1.
       -6    1    1    2    0  503  0.47562775076E+01 -0.64166859049E+02  0.74499914275E+03  0.76752376554E+03  0.17300000000E+03 0. -1.
        6    1    1    2  502    0  0.25204426571E+03 -0.11052589600E+03 -0.44991705721E+03  0.55506454033E+03  0.17300000000E+03 0.  1.
       -6    1    1    2    0  504 -0.20766756410E+01 -0.22932423423E+02 -0.36302486221E+03  0.40279803774E+03  0.17300000000E+03 0.  1.
</event>
<event>
 6   0  0.4500850E-05  0.2852524E+03  0.7546771E-02  0.1097591E+00
       21   -1    0    0  502  503  0.00000000000E+00  0.00000000000E+00  0.11243335590E+04  0.11243335590E+04  0.00000000000E+00 0.  1.
       21   -1    0    0  503  504  0.00000000000E+00  0.00000000000E+00 -0.41716081119E+03  0.41716081119E+03  0.00000000000E+00 0.  1.
        6    1    1    2  501    0  0.88591820935E+02  0.32211947716E+03  0.18822057923E+03  0.42067262182E+03  0.17300000000E+03 0. -1.
       -6    1    1    2    0  504  0.53397530401E+02 -0.12923466878E+03  0.10744907447E+03  0.24703683829E+03  0.17300000000E+03 0.  1.
        6    1    1    2  502    0  0.12465491428E+03 -0.11877643467E+03  0.48164293104E+03  0.53995888928E+03  0.17300000000E+03 0.  1.
       -6    1    1    2    0  501 -0.26664426561E+03 -0.74108373704E+02 -0.70139836945E+02  0.33382602080E+03  0.17300000000E+03 0.  1.
</event>
<event>
 6   0  0.4500850E-05  0.7219161E+03  0.7546771E-02  0.9680470E-01
        1   -1    0    0  502    0  0.00000000000E+00  0.00000000000E+00  0.70957736470E+03  0.70957736470E+03  0.00000000000E+00 0. -1.
       -1   -1    0    0    0  501  0.00000000000E+00  0.00000000000E+00 -0.96603409693E+03  0.96603409693E+03  0.00000000000E+00 0.  1.
        6    1    1    2  502    0 -0.13698546815E+03 -0.38591417762E+03 -0.23551948928E+03  0.50308369165E+03  0.17300000000E+03 0.  1.
       -6    1    1    2    0  501  0.30363874725E+03  0.22457765432E+03  0.13311356276E+03  0.43621076585E+03  0.17300000000E+03 0. -1.
        6    1    1    2  503    0 -0.23593230686E+02 -0.94193336012E+02 -0.30527976496E+03  0.36407933198E+03  0.17300000000E+03 0.  1.
       -6    1    1    2    0  503 -0.14306004842E+03  0.25552985932E+03  0.15122895925E+03  0.37223767215E+03  0.17300000000E+03 0. -1.
</event>
<event>
 6   0  0.4500850E-05  0.3038674E+03  0.7546771E-02  0.1095263E+00
       21   -1    0    0  501  503  0.00000000000E+00  0.00000000000E+00  0.32330578312E+03  0.32330578312E+03  0.00000000000E+00 0. -1.
       21   -1    0    0  502  504  0.00000000000E+00  0.00000000000E+00 -0.13668769475E+04  0.13668769475E+04  0.00000000000E+00 0. -1.
        6    1    1    2  501    0  0.17467989077E+03 -0.15405253679E+03 -0.13248928182E+03  0.31894773573E+03  0.17300000000E+03 0. -1.
       -6    1    1    2    0  504  0.10804163288E+03 -0.26154036496E+03 -0.45071501376E+03  0.55959751658E+03  0.17300000000E+03 0. -1.
        6    1    1    2  502    0 -0.22351983283E+03  0.33533228049E+03 -0.19610177290E+03  0.48040999088E+03  0.17300000000E+03 0. -1.
       -6    1    1    2    0  503 -0.59201690822E+02  0.80260621267E+02 -0.26426509594E+03  0.33122748747E+03  0.17300000000E+03 0. -1.
</event>
<event>
 6   0  0.4500850E-05  0.3205632E+03  0.7546771E-02  0.1076110E+00
       21   -1    0    0  501  503  0.00000000000E+00  0.00000000000E+00  0.11239854449E+04  0.11239854449E+04  0.00000000000E+00 0.  1.
       21   -1    0    0  502  504  0.00000000000E+00  0.00000000000E+00 -0.10050804383E+04  0.10050804383E+04  0.00000000000E+00 0. -1.
        6    1    1    2  501    0 -0.24144697340E+03  0.45539331373E+02 -0.71061223998E+03  0.77153692542E+03  0.17300000000E+03 0. -1.
       -6    1    1    2    0  504 -0.16422656487E+03  0.58717967097E+02 -0.68856010599E+02  0.25512411580E+03  0.17300000000E+03 0.  1.
        6    1    1    2  502    0  0.18703068299E+03  0.46927647385E+02  0.17520111397E+03  0.31274128414E+03  0.17300000000E+03 0.  1.
       -6    1    1    2    0  503  0.21864285527E+03 -0.15118494586E+03  0.72317214314E+03  0.78966355787E+03  0.17300000000E+03 0.  1.
</event>
<event>
 6   0  0.4500850E-05  0.3367246E+03  0.7546771E-02  0.1073463E+00
       21   -1    0    0  501  503  0.00000000000E+00  0.00000000000E+00  0.10278289949E+04  0.10278289949E+04  0.00000000000E+00 0. -1.
       21   -1    0    0  503  504  0.00000000000E+00  0.00000000000E+00 -0.82637689393E+03  0.82637689393E+03  0.00000000000E+00 0. -1.
        6    1    1    2  501    0 -0.40467852873E+02  0.32046197022E+02  0.34397623720E+03  0.38847555601E+03  0.17300000000E+03 0. -1.
       -6    1    1    2    0  502 -0.40304501339E+02  0.52714810094E+03  0.29070657386E+03  0.62765347544E+03  0.17300000000E+03 0.  1.
        6    1    1    2  502    0  0.56697607530E+02 -0.10509962220E+03 -0.22775298123E+03  0.30993704158E+03  0.17300000000E+03 0.  1.
       -6    1    1    2    0  504  0.24074746682E+02 -0.45409467576E+03 -0.20547772884E+03  0.52813981580E+03  0.17300000000E+03 0. -1.
</event>
<event>
 6   0  0.4500850E-05  0.2498535E+03  0.7546771E-02  0.1126309E+00
       21   -1    0    0  504  503  0.00000000000E+00  0.00000000000E+00  0.18427832892E+04  0.18427832892E+04  0.00000000000E+00 0. -1.
       21   -1    0    0  501  504  0.00000000000E+00  0.00000000000E+00 -0.24624157654E+03  0.24624157654E+03  0.00000000000E+00 0.  1.
        6    1    1    2  501    0 -0.21819781882E+02 -0.21802030431E+03 -0.62221127192E+02  0.28602346869E+03  0.17300000000E+03 0.  1.
       -6    1    1    2    0  502 -0.25284501923E+02  0.10649294191E+03  0.16979261572E+03  0.26596726315E+03  0.17300000000E+03 0. -1.
        6    1    1    2  502    0  0.74878608331E+02  0.66592366415E+02  0.82305805717E+03  0.84699168516E+03  0.17300000000E+03 0. -1.
       -6    1    1    2    0  503 -0.27774324527E+02  0.44934995989E+02  0.66591216692E+03  0.69004244871E+03  0.17300000000E+03 0. -1.
</event>
<event>
 6   0  0.4500850E-05  0.2693309E+03  0.7546771E-02  0.1113302E+00
       21   -1    0    0  504  503  0.00000000000E+00  0.00000000000E+00  0.72134994691E+03  0.72134994691E+03  0.00000000000E+00 0.  1.
       21   -1    0    0  501  504  0.00000000000E+00  0.00000000000E+00 -0.87539633245E+03  0.87539633245E+03  0.00000000000E+00 0.  1.
        6    1    1    2  501    0 -0.65951545184E+02  0.59796178790E+02 -0.40457539295E+03  0.44892698503E+03  0.17300000000E+03 0.  1.
       -6    1    1    2    0  503 -0.15484818837E+03  0.10975633761E+03  0.42515149396E+03  0.49669629343E+03  0.17300000000E+03 0.  1.
        6    1    1    2  502    0 -0.69503266678E+02 -0.20204776340E+03 -0.13305445674E+02  0.27524541351E+03  0.17300000000E+03 0. -1.
       -6    1    1    2    0  502  0.29030300023E+03  0.32495247001E+02 -0.16131704087E+03  0.37587758738E+03  0.17300000000E+03 0.  1.
</event>
<event>
 6   0  0.4500850E-05  0.2836391E+03  0.7546771E-02  0.1104806E+00
       21   -1    0    0  502  503  0.00000000000E+00  0.00000000000E+00  0.30344086362E+03  0.30344086362E+03  0.00000000000E+00 0.  1.
       21   -1    0    0  501  504  0.00000000000E+00  0.00000000000E+00 -0.16808712536E+04  0.16808712536E+04  0.00000000000E+00 0. -1.
        6    1    1    2  501    0 -0.30464188441E+03 -0.10064801517E+03 -0.39223097675E+03  0.53545386339E+03  0.17300000000E+03 0.  1.
       -6    1    1    2    0  503  0.12854780657E+03 -0.13506179263E+03  0.64760393367E+02  0.26246739788E+03  0.17300000000E+03 0.  1.
        6    1    1    2  502    0  0.17291769745E+03  0.18571039099E+03 -0.90343762063E+03  0.95421036139E+03  0.17300000000E+03 0. -1.
       -6    1    1    2    0  504  0.31763803920E+01  0.49999416803E+02 -0.14652218594E+03  0.23218049454E+03  0.17300000000E+03 0.  1.
</event>
<event>
 6   0  0.4500850E-05  0.3807307E+03  0.7546771E-02  0.1077794E+00
       21   -1    0    0  501  503  0.00000000000E+00  0.00000000000E+00  0.16716003590E+04  0.16716003590E+04  0.00000000000E+00 0.  1.
       21   -1    0    0  503  504  0.00000000000E+00  0.00000000000E+00 -0.28140558530E+03  0.28140558530E+03  0.00000000000E+00 0.  1.
        6    1    1    2  501    0 -0.72462069140E+02 -0.29001389880E+02  0.61559486187E+03  0.64418775682E+03  0.17300000000E+03 0.  1.
       -6    1    1    2    0  504 -0.43474244047E+02  0.17817404620E+02  0.25897887097E+03  0.31497067389E+03  0.17300000000E+03 0. -1.
        6    1    1    2  502    0 -0.82711291186E+02 -0.31549474061E+03  0.59355763982E+02  0.37393875937E+03  0.17300000000E+03 0.  1.
       -6    1    1    2    0  502  0.19864760437E+03  0.32667872587E+03  0.45626527689E+03  0.61990875421E+03  0.17300000000E+03 0.  1.
</event>
<event>
 6   0  0.4500850E-05  0.2571614E+03  0.7546771E-02  0.1110649E+00
       21   -1    0    0  502  503  0.00000000000E+00  0.00000000000E+00  0.13847131303E+04  0.13847131303E+04  0.00000000000E+00 0.  1.
       21   -1    0    0  503  504  0.00000000000E+00  0.00000000000E+00 -0.33495608712E+03  0.33495608712E+03  0.00000000000E+00 0. -1.
        6    1    1    2  501    0 -0.19746357996E+03  0.24676137592E+03  0.23764761708E+03  0.43161143632E+03  0.17300000000E+03 0.  1.
       -6    1    1    2    0  501  0.93827498450E+02 -0.17070311508E+03  0.11680211185E+03  0.28550811949E+03  0.17300000000E+03 0. -1.
        6    1    1    2  502    0 -0.32086063119E+02 -0.11141680456E+03  0.74567812885E+03  0.77421449975E+03  0.17300000000E+03 0.  1.
       -6    1    1    2    0  504  0.13572214463E+03  0.35358543719E+02 -0.50370814641E+02  0.22833516182E+03  0.17300000000E+03 0. -1.
</event>
<event>
 6   0  0.4500850E-05  0.2067644E+03  0.7546771E-02  0.1150749E+00
       21   -1    0    0  502  503  0.00000000000E+00  0.00000000000E+00  0.87345278484E+02  0.87345278484E+02  0.00000000000E+00 0. -1.
       21   -1    0    0  501  504  0.00000000000E+00  0.00000000000E+00 -0.20006866116E+04  0.20006866116E+04  0.00000000000E+00 0. -1.
        6    1    1    2  501    0 -0.54254283807E+02  0.53866915915E+02 -0.31225133574E+03  0.36506858070E+03  0.17300000000E+03 0. -1.
       -6    1    1    2    0  503  0.11346631459E+02 -0.34281261544E+02 -0.22981052151E+03  0.28990658277E+03  0.17300000000E+03 0. -1.
        6    1    1    2  502    0  0.91786420932E+01 -0.12229563011E+03 -0.71914820524E+03  0.74976236883E+03  0.17300000000E+03 0. -1.
       -6    1    1    2    0  504  0.33729010254E+02  0.10270997574E+03 -0.65213127061E+03  0.68329435777E+03  0.17300000000E+03 0.  1.
</event>
<event>
 6   0  0.4500850E-05  0.4172014E+03  0.7546771E-02  0.1062989E+00
       21   -1    0    0  502  503  0.00000000000E+00  0.00000000000E+00  0.60538818182E+03  0.60538818182E+03  0.00000000000E+00 0.  1.
       21   -1    0    0  503  504  0.00000000000E+00  0.00000000000E+00 -0.11096596230E+04  0.11096596230E+04  0.00000000000E+00 0. -1.
        6    1    1    2  501    0 -0.30372790196E+02  0.10475491041E+03 -0.21379949332E+03  0.29586368649E+03  0.17300000000E+03 0.  1.
       -6    1    1    2    0  504  0.12413047647E+03 -0.12554835874E+03 -0.36986040860E+03  0.44485558041E+03  0.17300000000E+03 0. -1.
        6    1    1    2  502    0 -0.30229793208E+03 -0.25224033417E+03  0.30607032701E+03  0.52784208907E+03  0.17300000000E+03 0.  1.
       -6    1    1    2    0  501  0.20854024581E+03  0.27303378249E+03 -0.22668186626E+03  0.44648644884E+03  0.17300000000E+03 0. -1.
</event>
<event>
 6   0  0.4500850E-05  0.2484912E+03  0.7546771E-02  0.1114281E+00
       21   -1    0    0  502  503  0.00000000000E+00  0.00000000000E+00  0.77373855512E+03  0.77373855512E+03  0.00000000000E+00 0.  1.
       21   -1    0    0  503  504  0.00000000000E+00  0.00000000000E+00 -0.14979876001E+04  0.14979876001E+04  0.00000000000E+00 0. -1.
        6    1    1    2  501    0 -0.22526948016E+03  0.12203473468E+02 -0.76805551047E+03  0.81898322975E+03  0.17300000000E+03 0. -1.
       -6    1    1    2    0  501  0.31274519066E+02 -0.12656163811E+03 -0.23770119224E+03  0.32160037403E+03  0.17300000000E+03 0. -1.
        6    1    1    2  502    0  0.21661848429E+03  0.13025127491E+02  0.65236948512E+03  0.70894863481E+03  0.17300000000E+03 0.  1.
       -6    1    1    2    0  504 -0.22623523198E+02  0.10133303715E+03 -0.37086182736E+03  0.42219391660E+03  0.17300000000E+03 0.  1.
</event>
<event>
 6   0  0.4500850E-05  0.3022234E+03  0.7546771E-02  0.1091258E+00
       21   -1    0    0  504  503  0.00000000000E+00  0.00000000000E+00  0.55144248702E+03  0.55144248702E+03  0.00000000000E+00 0.  1.
       21   -1    0    0  501  504  0.00000000000E+00  0.00000000000E+00 -0.76481080482E+03  0.76481080482E+03  0.00000000000E+00 0.  1.
        6    1    1    2  501    0  0.95380051087E+02  0.31362066312E+02  0.39804916591E+02  0.20394696549E+03  0.17300000000E+03 0. -1.
       -6    1    1    2    0  503  0.10010181119E+03 -0.37192729832E+03  0.10771908159E+03  0.43575530791E+03  0.17300000000E+03 0.  1.
        6    1    1    2  502    0  0.27502176744E+02  0.15887817353E+03 -0.15590638449E+03  0.28325685248E+03  0.17300000000E+03 0.  1.
       -6    1    1    2    0  502 -0.22298403902E+03  0.18168705847E+03 -0.20498593148E+03  0.39329416596E+03  0.17300000000E+03 0.  1.
</event>
<event>
 6   0  0.4500850E-05  0.4984454E+03  0.7546771E-02  0.1014185E+00
       -2   -1    0    0    0  501  0.00000000000E+00  0.00000000000E+00  0.20245606715E+03  0.20245606715E+03  0.00000000000E+00 0. -1.
        2   -1    0    0  503    0  0.00000000000E+00  0.00000000000E+00 -0.19953367125E+04  0.19953367125E+04  0.00000000000E+00 0.  1.
        6    1    1    2  502    0 -0.15614970120E+01  0.16382907676E+03 -0.31313470010E+03  0.39347775677E+03  0.17300000000E+03 0.  1.
       -6    1    1    2    0  501 -0.65082567419E+02 -0.28264364393E+03 -0.10037750711E+03  0.35231777414E+03  0.17300000000E+03 0.  1.
        6    1    1    2  503    0 -0.84392910912E+02  0.16657193844E+02 -0.46090986809E+03  0.49976647749E+03  0.17300000000E+03 0.  1.
       -6    1    1    2    0  502  0.15103697534E+03  0.10215737333E+03 -0.91845857009E+03  0.95223077131E+03  0.17300000000E+03 0. -1.
</event>
<event>
 6   0  0.4500850E-05  0.7065007E+03  0.7546771E-02  0.1002663E+00
       21   -1    0    0  501  503  0.00000000000E+00  0.00000000000E+00  0.14958236763E+04  0.14958236763E+04  0.00000000000E+00 0.  1.
       21   -1    0    0  502  504  0.00000000000E+00  0.00000000000E+00 -0.50861120702E+03  0.50861120702E+03  0.00000000000E+00 0. -1.
        6    1    1    2  501    0  0.77246992295E+02 -0.45202794859E+03  0.55265383412E+03  0.73868235697E+03  0.17300000000E+03 0.  1.
       -6    1    1    2    0  504 -0.62258957879E+02 -0.16324126233E+03  0.28786900925E+03  0.37857820071E+03  0.17300000000E+03 0. -1.
        6    1    1    2  502    0 -0.16736589414E+03  0.51819906343E+03  0.24062534571E+03  0.61997674864E+03  0.17300000000E+03 0.  1.
       -6    1    1    2    0  503  0.15237785972E+03  0.97070147489E+02 -0.93935719855E+02  0.26719757696E+03  0.17300000000E+03 0. -1.
</event>
<event>
 6   0  0.4500850E-05  0.5360856E+03  0.7546771E-02  0.1034016E+00
       21   -1    0    0  502  503  0.00000000000E+00  0.00000000000E+00  0.16396397640E+04  0.16396397640E+04  0.00000000000E+00 0.  1.
       21   -1    0    0  501  504  0.00000000000E+00  0.00000000000E+00 -0.39413895675E+03  0.39413895675E+03  0.00000000000E+00 0. -1.
        6    1    1    2  501    0 -0.23939199901E+03 -0.80656911311E+02 -0.47348676503E+02  0.30981440202E+03  0.17300000000E+03 0. -1.
       -6    1    1    2    0  504  0.20377425288E+03  0.29640447574E+03  0.98366367245E+03  0.10615567719E+04  0.17300000000E+03 0.  1.
        6    1    1    2  502    0  0.11421127618E+03 -0.76285942132E+02  0.35898613048E+03  0.42150184157E+03  0.17300000000E+03 0.  1.
       -6    1    1    2    0  503 -0.78593530050E+02 -0.13946162230E+03 -0.49800319168E+02  0.24090570531E+03  0.17300000000E+03 0. -1.
</event>
<event>
 6   0  0.4500850E-05  0.3733920E+03  0.7546771E-02  0.1073911E+00
       21   -1    0    0  501  503  0.00000000000E+00  0.00000000000E+00  0.47836352359E+03  0.47836352359E+03  0.00000000000E+00 0.  1.
       21   -1    0    0  502  504  0.00000000000E+00  0.00000000000E+00 -0.14017285966E+04  0.14017285966E+04  0.00000000000E+00 0.  1.
        6    1    1    2  501    0  0.21476337686E+02 -0.36902231459E+03 -0.10176493217E+04  0.10964387095E+04  0.17300000000E+03 0.  1.
       -6    1    1    2    0  504  0.47342983917E+02  0.21245853065E+03 -0.35871746341E+02  0.28034936696E+03  0.17300000000E+03 0.  1.
        6    1    1    2  502    0 -0.18129289472E+03  0.11168050526E+03  0.60529466953E+02  0.28094922193E+03  0.17300000000E+03 0.  1.
       -6    1    1    2    0  503  0.11247357312E+03  0.44883278679E+02  0.69626528099E+02  0.22235482178E+03  0.17300000000E+03 0. -1.
</event>
<event>
 6   0  0.4500850E-05  0.6319528E+03  0.7546771E-02  0.9897373E-01
        2   -1    0    0  503    0  0.00000000000E+00  0.00000000000E+00  0.82095234946E+03  0.82095234946E+03  0.00000000000E+00 0. -1.
       -2   -1    0    0    0  501  0.00000000000E+00  0.00000000000E+00 -0.64902166506E+03  0.64902166506E+03  0.00000000000E+00 0.  1.
        6    1    1    2  502    0 -0.26707372228E+03  0.67997594321E+02 -0.27887731777E+03  0.42854825205E+03  0.17300000000E+03 0.  1.
       -6    1    1    2    0  502  0.30747088926E+03 -0.71726205144E+02  0.12848778660E+03  0.38225790712E+03  0.17300000000E+03 0. -1.
        6    1    1    2  503    0  0.33347512811E+02 -0.44663550326E+02  0.40820010536E+03  0.44683690017E+03  0.17300000000E+03 0. -1.
       -6    1    1    2    0  501 -0.73744679788E+02  0.48392161149E+02 -0.85879889793E+02  0.21233095518E+03  0.17300000000E+03 0.  1.
</event>
<event>
 6   0  0.4500850E-05  0.2361154E+03  0.7546771E-02  0.1122748E+00
       21   -1    0    0  504  503  0.00000000000E+00  0.00000000000E+00  0.15482935262E+04  0.15482935262E+04  0.00000000000E+00 0.  1.
       21   -1    0    0  501  504  0.00000000000E+00  0.00000000000E+00 -0.68200561907E+03  0.68200561907E+03  0.00000000000E+00 0. -1.
        6    1    1    2  501    0 -0.96739092627E+02  0.14367126028E+03 -0.43669534563E+03  0.50063130942E+03  0.17300000000E+03 0. -1.
       -6    1    1    2    0  502 -0.10369848685E+03 -0.50643226693E+02 -0.10953848446E+03  0.23504423448E+03  0.17300000000E+03 0. -1.
        6    1    1    2  502    0  0.94762743103E+02  0.48396794601E+02  0.35877938734E+03  0.41227888132E+03  0.17300000000E+03 0.  1.
       -6    1    1    2    0  503  0.10567483637E+03 -0.14142482818E+03  0.10537423498E+04  0.10823447200E+04  0.17300000000E+03 0.  1.
</event>
<event>
 6   0  0.4500850E-05  0.2311587E+03  0.7546771E-02  0.1130523E+00
       21   -1    0    0  502  503  0.00000000000E+00  0.00000000000E+00  0.16439727237E+04  0.16439727237E+04  0.00000000000E+00 0. -1.
       21   -1    0    0  501  504  0.00000000000E+00  0.00000000000E+00 -0.15620224872E+04  0.15620224872E+04  0.00000000000E+00 0. -1.
        6    1    1    2  501    0 -0.16851669552E+03  0.13450296087E+03  0.20802028242E+03  0.34596294751E+03  0.17300000000E+03 0. -1.
       -6    1    1    2    0  504 -0.47454296847E+02  0.10076028703E+03 -0.10770297447E+04  0.10965065512E+04  0.17300000000E+03 0. -1.
        6    1    1    2  502    0  0.20458628841E+03 -0.17821968481E+03 -0.33509684715E+03  0.46458228811E+03  0.17300000000E+03 0. -1.
       -6    1    1    2    0  503  0.11384703955E+02 -0.57043563083E+02  0.12860565460E+04  0.12989434241E+04  0.17300000000E+03 0. -1.
</event>
<event>
 6   0  0.4500850E-05  0.3838228E+03  0.7546771E-02  0.1056727E+00
       21   -1    0    0  502  503  0.00000000000E+00  0.00000000000E+00  0.24581235073E+04  0.24581235073E+04  0.00000000000E+00 0.  1.
       21   -1    0    0  501  504  0.00000000000E+00  0.00000000000E+00 -0.62408912118E+03  0.62408912118E+03  0.00000000000E+00 0.  1.
        6    1    1    2  501    0  0.53703062210E+03  0.11242390004E+02 -0.26136544259E+03  0.62190769009E+03  0.17300000000E+03 0.  1.
       -6    1    1    2    0  503  0.23593464636E+03  0.41084029188E+02  0.84088911873E+03  0.89127805134E+03  0.17300000000E+03 0. -1.
        6    1    1    2  502    0 -0.37148116454E+03 -0.19649697475E+03  0.43509930128E+03  0.62916589122E+03  0.17300000000E+03 0.  1.
       -6    1    1    2    0  504 -0.40148410392E+03  0.14417055556E+03  0.81941140870E+03  0.93986099584E+03  0.17300000000E+03 0. -1.
</event>
<event>
 6   0  0.4500850E-05  0.2966955E+03  0.7546771E-02  0.1106216E+00
       21   -1    0    0  502  503  0.00000000000E+00  0.00000000000E+00  0.84189503471E+03  0.84189503471E+03  0.00000000000E+00 0. -1.
       21   -1    0    0  503  504  0.00000000000E+00  0.00000000000E+00 -0.36898458547E+03  0.36898458547E+03  0.00000000000E+00 0. -1.
        6    1    1    2  501    0 -0.19990907559E+02 -0.22630694406E+03 -0.66543173552E+02  0.29320890720E+03  0.17300000000E+03 0. -1.
       -6    1    1    2    0  504  0.39137625949E+02  0.25366805434E+02  0.18267712422E+03  0.25588114487E+03  0.17300000000E+03 0.  1.
        6    1    1    2  502    0  0.37612172405E+02 -0.67992244706E+02  0.26207134629E+03  0.32349344878E+03  0.17300000000E+03 0. -1.
       -6    1    1    2    0  501 -0.56758890795E+02  0.26893238333E+03  0.94705152279E+02  0.33829611934E+03  0.17300000000E+03 0. -1.
</event>
<event>
 6   0  0.4500850E-05  0.2689274E+03  0.7546771E-02  0.1104398E+00
       21   -1    0    0  502  503  0.00000000000E+00  0.00000000000E+00  0.11264629874E+04  0.11264629874E+04  0.00000000000E+00 0.  1.
       21   -1    0    0  501  504  0.00000000000E+00  0.00000000000E+00 -0.62148804690E+03  0.62148804690E+03  0.00000000000E+00 0. -1.
        6    1    1    2  501    0 -0.58793944029E+02  0.11413469388E+03  0.27227595997E+03  0.34719829288E+03  0.17300000000E+03 0. -1.
       -6    1    1    2    0  503  0.18942698339E+03  0.25852206982E+03  0.32641206435E+03  0.48907062718E+03  0.17300000000E+03 0.  1.
        6    1    1    2  502    0 -0.76815212967E+02 -0.22791146530E+03  0.32082176524E+03  0.43669190284E+03  0.17300000000E+03 0.  1.
       -6    1    1    2    0  504 -0.53817826391E+02 -0.14474529840E+03 -0.41453484906E+03  0.47499021140E+03  0.17300000000E+03 0. -1.
</event>
<event>
 6   0  0.4500850E-05  0.2017459E+03  0.7546771E-02  0.1151017E+00
       21   -1    0    0  502  503  0.00000000000E+00  0.00000000000E+00  0.50963141312E+03  0.50963141312E+03  0.00000000000E+00 0.  1.
       21   -1    0    0  501  504  0.00000000000E+00  0.00000000000E+00 -0.42356449572E+03  0.42356449572E+03  0.00000000000E+00 0. -1.
        6    1    1    2  501    0  0.27859940522E+02  0.80973748676E+02 -0.58799634403E+02  0.20179029032E+03  0.17300000000E+03 0. -1.
       -6    1    1    2    0  503 -0.60767068102E+02  0.46821923727E+02  0.91310161787E+02  0.21012252319E+03  0.17300000000E+03 0.  1.
        6    1    1    2  502    0  0.83914603060E+02 -0.15088111446E+03 -0.11790111163E+03  0.27136035715E+03  0.17300000000E+03 0. -1.
       -6    1    1    2    0  504 -0.51007475480E+02  0.23085442057E+02  0.17145750165E+03  0.24992273818E+03  0.17300000000E+03 0.  1.
</event>
<event>
 6   0  0.4500850E-05  0.2898482E+03  0.7546771E-02  0.1108130E+00
       21   -1    0    0  502  503  0.00000000000E+00  0.00000000000E+00  0.28155724640E+03  0.28155724640E+03  0.00000000000E+00 0.  1.
       21   -1    0    0  501  504  0.00000000000E+00  0.00000000000E+00 -0.14788487819E+04  0.14788487819E+04  0.00000000000E+00 0.  1.
        6    1    1    2  501    0 -0.26294891773E+03  0.18382792122E+02 -0.45293263154E+03  0.55186685812E+03  0.17300000000E+03 0.  1.
       -6    1    1    2    0  503  0.20544251922E+03 -0.10185126421E+03  0.81255288756E+02  0.29851588011E+03  0.17300000000E+03 0.  1.
        6    1    1    2  502    0 -0.38242065003E+01  0.59504081053E+02 -0.53534177980E+03  0.56575187266E+03  0.17300000000E+03 0.  1.
       -6    1    1    2    0  504  0.61330605010E+02  0.23964391036E+02 -0.29027241294E+03  0.34427141744E+03  0.17300000000E+03 0. -1.
</event>
<event>
 6   0  0.4500850E-05  0.2236051E+03  0.7546771E-02  0.1134194E+00
       21   -1    0    0  504  503  0.00000000000E+00  0.00000000000E+00  0.11898662961E+04  0.11898662961E+04  0.00000000000E+00 0.  1.
       21   -1    0    0  501  504  0.00000000000E+00  0.00000000000E+00 -0.58445495239E+03  0.58445495239E+03  0.00000000000E+00 0.  1.
        6    1    1    2  501    0  0.67356718939E+01  0.70703758005E+02 -0.83428249120E+02  0.20477710669E+03  0.17300000000E+03 0. -1.
       -6    1    1    2    0  503 -0.86197996218E+00 -0.11151127177E+02  0.75123705830E+03  0.77098067966E+03  0.17300000000E+03 0.  1.
        6    1    1    2  502    0  0.20249073519E+03  0.27648212620E+02  0.25677840476E+03  0.37098661788E+03  0.17300000000E+03 0. -1.
       -6    1    1    2    0  502 -0.20836442712E+03 -0.87200843448E+02 -0.31917587024E+03  0.42757684424E+03  0.17300000000E+03 0.  1.
</event>
<event>
 6   0  0.4500850E-05  0.4288448E+03  0.7546771E-02  0.1035570E+00
        2   -1    0    0  502    0  0.00000000000E+00  0.00000000000E+00  0.12925417835E+04  0.12925417835E+04  0.00000000000E+00 0.  1.
       -2   -1    0    0    0  501  0.00000000000E+00  0.00000000000E+00 -0.13902659041E+03  0.13902659041E+03  0.00000000000E+00 0. -1.
        6    1    1    2  502    0  0.63604036654E+02  0.39823524366E+02  0.13267612117E+03  0.23057176692E+03  0.17300000000E+03 0. -1.
       -6    1    1    2    0  503 -0.50266603666E+02  0.13445592542E+02  0.23724114540E+03  0.29819436023E+03  0.17300000000E+03 0.  1.
        6    1    1    2  503    0 -0.14617757963E+03 -0.21920174254E+02  0.41837053772E+03  0.47624708467E+03  0.17300000000E+03 0.  1.
       -6    1    1    2    0  501  0.13284014664E+03 -0.31348942655E+02  0.36522738877E+03  0.42655516205E+03  0.17300000000E+03 0. -1.
</event>
<event>
 6   0  0.4500850E-05  0.3261551E+03  0.7546771E-02  0.1083372E+00
       21   -1    0    0  504  503  0.00000000000E+00  0.00000000000E+00  0.14611649858E+04  0.14611649858E+04  0.00000000000E+00 0. -1.
       21   -1    0    0  501  504  0.00000000000E+00  0.00000000000E+00 -0.69006068849E+03  0.69006068849E+03  0.00000000000E+00 0.  1.
        6    1    1    2  501    0  0.11264590860E+03  0.10592109835E+03 -0.17687394002E+03  0.29175635461E+03  0.17300000000E+03 0.  1.
       -6    1    1    2    0  502 -0.38174686505E+03  0.22543286988E+03 -0.19039226736E+03  0.51257083732E+03  0.17300000000E+03 0.  1.
        6    1    1    2  502    0  0.26572984995E+02  0.29849705490E+01  0.70103644092E+02  0.18856976029E+03  0.17300000000E+03 0. -1.
       -6    1    1    2    0  503  0.24252797146E+03 -0.33433893878E+03  0.10682668606E+04  0.11583287221E+04  0.17300000000E+03 0. -1.
</event>
<event>
 6   0  0.4500850E-05  0.3519608E+03  0.7546771E-02  0.1066116E+00
       21   -1    0    0  501  503  0.00000000000E+00  0.00000000000E+00  0.95201799063E+03  0.95201799063E+03  0.00000000000E+00 0. -1.
       21   -1    0    0  503  504  0.00000000000E+00  0.00000000000E+00 -0.99937249996E+03  0.99937249996E+03  0.00000000000E+00 0. -1.
        6    1    1    2  501    0 -0.89579121109E+02 -0.29801266994E+02  0.16815904922E+03  0.25907334924E+03  0.17300000000E+03 0. -1.
       -6    1    1    2    0  502  0.85712694464E+02 -0.51845432734E+03  0.32609722968E+03  0.64219152808E+03  0.17300000000E+03 0.  1.
        6    1    1    2  502    0  0.13788483349E+03  0.52411383494E+03 -0.13033857305E+03  0.58363060484E+03  0.17300000000E+03 0. -1.
       -6    1    1    2    0  504 -0.13401840685E+03  0.24141759395E+02 -0.41127221517E+03  0.46649500844E+03  0.17300000000E+03 0. -1.
</event>
<event>
 6   0  0.4500850E-05  0.4235271E+03  0.7546771E-02  0.1051936E+00
       21   -1    0    0  502  503  0.00000000000E+00  0.00000000000E+00  0.47516435029E+03  0.47516435029E+03  0.00000000000E+00 0.  1.
       21   -1    0    0  503  504  0.00000000000E+00  0.00000000000E+00 -0.69227071787E+03  0.69227071787E+03  0.00000000000E+00 0.  1.
        6    1    1    2  501    0  0.19532144709E+03 -0.22547269696E+03 -0.19481414424E+03  0.39606811985E+03  0.17300000000E+03 0.  1.
       -6    1    1    2    0  504 -0.20037477178E+03  0.32835952338E+02 -0.18672503076E+03  0.32561247833E+03  0.17300000000E+03 0.  1.
        6    1    1    2  502    0 -0.88103605935E+01  0.12856372690E+03  0.14457695346E+03  0.25968779294E+03  0.17300000000E+03 0.  1.
       -6    1    1    2    0  501  0.13863685283E+02  0.64073017719E+02  0.19855853963E+02  0.18606667704E+03  0.17300000000E+03 0.  1.
</event>
<event>
 6   0  0.4500850E-05  0.7644410E+03  0.7546771E-02  0.9926405E-01
       21   -1    0    0  501  503  0.00000000000E+00  0.00000000000E+00  0.98602040471E+03  0.98602040471E+03  0.00000000000E+00 0.  1.
       21   -1    0    0  502  504  0.00000000000E+00  0.00000000000E+00 -0.21867508667E+04  0.21867508667E+04  0.00000000000E+00 0. -1.
        6    1    1    2  501    0  0.92076780788E+02  0.16805618724E+03  0.68178579123E+03  0.72902803839E+03  0.17300000000E+03 0.  1.
       -6    1    1    2    0  504  0.18086412910E+03  0.44873220605E+02 -0.20811020717E+03  0.32857921031E+03  0.17300000000E+03 0. -1.
        6    1    1    2  502    0  0.35551258467E+03  0.24249498836E+03 -0.39716355036E+03  0.61062337244E+03  0.17300000000E+03 0. -1.
       -6    1    1    2    0  503 -0.62845349455E+03 -0.45542439621E+03 -0.12772424957E+04  0.15045406503E+04  0.17300000000E+03 0.  1.
</event>
<event>
 6   0  0.4500850E-05  0.3935270E+03  0.7546771E-02  0.1072509E+00
       21   -1    0    0  501  503  0.00000000000E+00  0.00000000000E+00  0.63630260898E+03  0.63630260898E+03  0.00000000000E+00 0.  1.
       21   -1    0    0  502  504  0.00000000000E+00  0.00000000000E+00 -0.59215129466E+03  0.59215129466E+03  0.00000000000E+00 0. -1.
        6    1    1    2  501    0  0.21715955524E+02 -0.51625715570E+02 -0.18105571786E+03  0.25660664489E+03  0.17300000000E+03 0.  1.
       -6    1    1    2    0  503 -0.65067277548E+02  0.31083515159E+02  0.35219243167E+03  0.39895920149E+03  0.17300000000E+03 0. -1.
        6    1    1    2  502    0  0.90299759324E+02  0.13688833240E+03  0.10235005111E+03  0.25941664373E+03  0.17300000000E+03 0. -1.
       -6    1    1    2    0  504 -0.46948437300E+02 -0.11634613199E+03 -0.22933545061E+03  0.31347141353E+03  0.17300000000E+03 0. -1.
</event>
<event>
 6   0  0.4500850E-05  0.2640856E+03  0.7546771E-02  0.1115440E+00
       21   -1    0    0  502  503  0.00000000000E+00  0.00000000000E+00  0.86778514526E+03  0.86778514526E+03  0.00000000000E+00 0. -1.
       21   -1    0    0  501  504  0.00000000000E+00  0.00000000000E+00 -0.32261740560E+03  0.32261740560E+03  0.00000000000E+00 0. -1.
        6    1    1    2  501    0  0.34718741093E+02  0.17853006869E+03  0.15472949249E+03  0.29487046691E+03  0.17300000000E+03 0. -1.
       -6    1    1    2    0  504 -0.23120242533E+03 -0.94229461346E+02 -0.90237294159E+01  0.30388185296E+03  0.17300000000E+03 0. -1.
        6    1    1    2  502    0  0.94946188402E+02  0.37926884031E+02  0.16893649874E+03  0.26252955611E+03  0.17300000000E+03 0.  1.
       -6    1    1    2    0  503  0.10153749583E+03 -0.12222749137E+03  0.23052547785E+03  0.32912067490E+03  0.17300000000E+03 0. -1.
</event>
<event>
 6   0  0.4500850E-05  0.2230087E+03  0.7546771E-02  0.1134486E+00
       21   -1    0    0  501  503  0.00000000000E+00  0.00000000000E+00  0.19978231284E+04  0.19978231284E+04  0.00000000000E+00 0. -1.
       21   -1    0    0  502  504  0.00000000000E+00  0.00000000000E+00 -0.69253703090E+03  0.69253703090E+03  0.00000000000E+00 0.  1.
        6    1    1    2  501    0 -0.46716872165E+02 -0.24036526801E+03 -0.50096896749E+03  0.58382945677E+03  0.17300000000E+03 0.  1.
       -6    1    1    2    0  503 -0.41027718733E+02  0.72440479274E+02  0.12361412512E+04  0.12509616659E+04  0.17300000000E+03 0. -1.
        6    1    1    2  502    0  0.30665860055E+01  0.47364140544E+02 -0.57261886608E+02  0.18831008846E+03  0.17300000000E+03 0. -1.
       -6    1    1    2    0  504  0.84678004892E+02  0.12056064819E+03  0.62737570037E+03  0.66725894810E+03  0.17300000000E+03 0. -1.
</event>
<event>
 6   0  0.4500850E-05  0.3308227E+03  0.7546771E-02  0.1074511E+00
       21   -1    0    0  501  503  0.00000000000E+00  0.00000000000E+00  0.68427101054E+03  0.68427101054E+03  0.00000000000E+00 0.  1.
       21   -1    0    0  502  504  0.00000000000E+00  0.00000000000E+00 -0.92607643120E+03  0.92607643120E+03  0.00000000000E+00 0. -1.
        6    1    1    2  501    0  0.95593274951E+02 -0.17841705173E+03 -0.63922395969E+03  0.69246443173E+03  0.17300000000E+03 0. -1.
       -6    1    1    2    0  503 -0.15398403000E+03 -0.61257938452E+02  0.41701276931E+03  0.48092854593E+03  0.17300000000E+03 0.  1.
        6    1    1    2  502    0 -0.12962502375E+02  0.14830610001E+03 -0.77915282107E+01  0.22836907339E+03  0.17300000000E+03 0. -1.
       -6    1    1    2    0  504  0.71353257427E+02  0.91368890168E+02 -0.11802702064E+02  0.20858539070E+03  0.17300000000E+03 0.  1.
</event>
<event>
 6   0  0.4500850E-05  0.3170077E+03  0.7546771E-02  0.1095219E+00
       21   -1    0    0  502  503  0.00000000000E+00  0.00000000000E+00  0.14735794854E+04  0.14735794854E+04  0.00000000000E+00 0. -1.
       21   -1    0    0  503  504  0.00000000000E+00  0.00000000000E+00 -0.11479787524E+04  0.11479787524E+04  0.00000000000E+00 0. -1.
        6    1    1    2  501    0 -0.25136489526E+03 -0.49093655850E+02 -0.87824539449E+03  0.93104160517E+03  0.17300000000E+03 0. -1.
       -6    1    1    2    0  504  0.12789012384E+03 -0.22452165404E+03 -0.52897377649E+02  0.31542509328E+03  0.17300000000E+03 0.  1.
        6    1    1    2  502    0  0.59570230978E+02  0.31826091968E+03  0.87100590047E+03  0.94520839188E+03  0.17300000000E+03 0. -1.
       -6    1    1    2    0  501  0.63904540436E+02 -0.44645609792E+02  0.38573760470E+03  0.42988314743E+03  0.17300000000E+03 0. -1.
</event>
<event>
 6   0  0.4500850E-05  0.3397920E+03  0.7546771E-02  0.1074540E+00
       21   -1    0    0  504  503  0.00000000000E+00  0.00000000000E+00  0.14430304638E+04  0.14430304638E+04  0.00000000000E+00 0. -1.
       21   -1    0    0  501  504  0.00000000000E+00  0.00000000000E+00 -0.46408431757E+03  0.46408431757E+03  0.00000000000E+00 0.  1.
        6    1    1    2  501    0 -0.35537497101E+02 -0.17424212211E+03 -0.11204585362E+03  0.27222509828E+03  0.17300000000E+03 0.  1.
       -6    1    1    2    0  503 -0.10217843821E+03  0.15052810265E+02  0.38525642757E+03  0.43476261950E+03  0.17300000000E+03 0.  1.
        6    1    1    2  502    0 -0.19635710380E+03  0.39320708970E+03  0.56246677056E+03  0.73448335283E+03  0.17300000000E+03 0.  1.
       -6    1    1    2    0  502  0.33407303911E+03 -0.23401777786E+03  0.14326880172E+03  0.46564371075E+03  0.17300000000E+03 0. -1.
</event>
<event>
 6   0  0.4500850E-05  0.5265763E+03  0.7546771E-02  0.1039924E+00
       21   -1    0    0  502  503  0.00000000000E+00  0.00000000000E+00  0.63125281118E+03  0.63125281118E+03  0.00000000000E+00 0.  1.
       21   -1    0    0  503  504  0.00000000000E+00  0.00000000000E+00 -0.54622603208E+03  0.54622603208E+03  0.00000000000E+00 0. -1.
        6    1    1    2  501    0  0.87415933376E+02  0.38333332223E+03  0.26319290882E+02  0.43035762618E+03  0.17300000000E+03 0.  1.
       -6    1    1    2    0  504  0.80005829544E+02 -0.45955570271E+02 -0.71399284690E+02  0.20866170002E+03  0.17300000000E+03 0. -1.
        6    1    1    2  502    0 -0.91856003766E+02 -0.10221317804E+03  0.54779386196E+02  0.22762873357E+03  0.17300000000E+03 0.  1.
       -6    1    1    2    0  501 -0.75565759154E+02 -0.23516457392E+03  0.75327386709E+02  0.31083078350E+03  0.17300000000E+03 0. -1.
</event>
<event>
 6   0  0.4500850E-05  0.4719471E+03  0.7546771E-02  0.1054742E+00
       21   -1    0    0  502  503  0.00000000000E+00  0.00000000000E+00  0.12651121269E+04  0.12651121269E+04  0.00000000000E+00 0.  1.
       21   -1    0    0  503  504  0.00000000000E+00  0.00000000000E+00 -0.65827006788E+03  0.65827006788E+03  0.00000000000E+00 0. -1.
        6    1    1    2  501    0  0.12139529257E+03  0.47411173549E+03  0.96716898698E+02  0.52801696306E+03  0.17300000000E+03 0.  1.
       -6    1    1    2    0  504  0.80244120746E+02 -0.42268096379E+03 -0.23637859190E+03  0.52048261717E+03  0.17300000000E+03 0. -1.
        6    1    1    2  502    0 -0.39526019985E+02 -0.14406329616E+02  0.50051756153E+03  0.53124069685E+03  0.17300000000E+03 0.  1.
       -6    1    1    2    0  501 -0.16211339333E+03 -0.37024442084E+02  0.24598619073E+03  0.34364191775E+03  0.17300000000E+03 0. -1.
</event>
<event>
 6   0  0.4500850E-05  0.4220156E+03  0.7546771E-02  0.1036412E+00
       -2   -1    0    0    0  501  0.00000000000E+00  0.00000000000E+00  0.28243912487E+03  0.28243912487E+03  0.00000000000E+00 0. -1.
        2   -1    0    0  502    0  0.00000000000E+00  0.00000000000E+00 -0.12990159751E+04  0.12990159751E+04  0.00000000000E+00 0.  1.
        6    1    1    2  502    0 -0.58066626586E+02 -0.11725627767E+03 -0.48063725527E+03  0.52731578673E+03  0.17300000000E+03 0.  1.
       -6    1    1    2    0  501 -0.16224489079E+03  0.72114335982E+01 -0.85552225518E+02  0.25223717540E+03  0.17300000000E+03 0.  1.
        6    1    1    2  503    0  0.14031068346E+03  0.50266328433E+02  0.74576476286E+02  0.24021748996E+03  0.17300000000E+03 0. -1.
       -6    1    1    2    0  503  0.80000833922E+02  0.59778515637E+02 -0.52496384572E+03  0.56168464788E+03  0.17300000000E+03 0. -1.
</event>
<event>
 6   0  0.4500850E-05  0.2497130E+03  0.7546771E-02  0.1119278E+00
       21   -1    0    0  504  503  0.00000000000E+00  0.00000000000E+00  0.34960118077E+03  0.34960118077E+03  0.00000000000E+00 0.  1.
       21   -1    0    0  502  504  0.00000000000E+00  0.00000000000E+00 -0.25843849151E+04  0.25843849151E+04  0.00000000000E+00 0.  1.
        6    1    1    2  501    0 -0.16631951273E+03  0.78680759439E+02  0.21211191898E+03  0.32980798716E+03  0.17300000000E+03 0.  1.
       -6    1    1    2    0  503  0.12493646009E+03 -0.32329168290E+02 -0.28574916577E+03  0.35810037688E+03  0.17300000000E+03 0.  1.
        6    1    1    2  502    0  0.58736489441E+02  0.11616429443E+03 -0.30103888573E+03  0.37080659273E+03  0.17300000000E+03 0. -1.
       -6    1    1    2    0  501 -0.17353436795E+02 -0.16251588558E+03 -0.18601076018E+04  0.18752711391E+04  0.17300000000E+03 0.  1.
</event>
<event>
 6   0  0.4500850E-05  0.2712547E+03  0.7546771E-02  0.1101271E+00
       21   -1    0    0  501  503  0.00000000000E+00  0.00000000000E+00  0.10489525691E+04  0.10489525691E+04  0.00000000000E+00 0. -1.
       21   -1    0    0  502  504  0.00000000000E+00  0.00000000000E+00 -0.62596530594E+03  0.62596530594E+03  0.00000000000E+00 0.  1.
        6    1    1    2  501    0  0.50426984974E+02 -0.17091437814E+03  0.70227384323E+03  0.74489741331E+03  0.17300000000E+03 0. -1.
       -6    1    1    2    0  504 -0.35295870644E+01 -0.15316373802E+03  0.13845814895E+03  0.26939051141E+03  0.17300000000E+03 0.  1.
        6    1    1    2  502    0 -0.10064282470E+03  0.10223062335E+03 -0.19992825797E+03  0.30079957920E+03  0.17300000000E+03 0.  1.
       -6    1    1    2    0  503  0.53745426791E+02  0.22184749281E+03 -0.21781647100E+03  0.35983037116E+03  0.17300000000E+03 0.  1.
</event>
<event>
 6   0  0.4500850E-05  0.2432321E+03  0.7546771E-02  0.1130489E+00
       21   -1    0    0  502  503  0.00000000000E+00  0.00000000000E+00  0.37787584640E+03  0.37787584640E+03  0.00000000000E+00 0. -1.
       21   -1    0    0  501  504  0.00000000000E+00  0.00000000000E+00 -0.13551915466E+04  0.13551915466E+04  0.00000000000E+00 0.  1.
        6    1    1    2  501    0  0.57904411259E+02 -0.12104852012E+03 -0.60630451163E+03  0.64462378632E+03  0.17300000000E+03 0.  1.
       -6    1    1    2    0  504 -0.11675892382E+03  0.26120157751E+03 -0.40640956507E+03  0.52626670517E+03  0.17300000000E+03 0. -1.
        6    1    1    2  502    0 -0.68890091278E+00 -0.36848494591E+02  0.22014030126E+03  0.28239872234E+03  0.17300000000E+03 0. -1.
       -6    1    1    2    0  503  0.59543413474E+02 -0.10330456280E+03 -0.18474192479E+03  0.27977817920E+03  0.17300000000E+03 0.  1.
</event>
<event>
 6   0  0.4500850E-05  0.3002282E+03  0.7546771E-02  0.1096799E+00
       21   -1    0    0  502  503  0.00000000000E+00  0.00000000000E+00  0.10959164315E+04  0.10959164315E+04  0.00000000000E+00 0.  1.
       21   -1    0    0  503  504  0.00000000000E+00  0.00000000000E+00 -0.53185527219E+03  0.53185527219E+03  0.00000000000E+00 0. -1.
        6    1    1    2  501    0 -0.22457800167E+03  0.26559893983E+03  0.31758650720E+03  0.50176514948E+03  0.17300000000E+03 0. -1.
       -6    1    1    2    0  504  0.19205980334E+02 -0.89754978110E+00 -0.23453556762E+03  0.29207123747E+03  0.17300000000E+03 0. -1.
        6    1    1    2  502    0  0.31912441432E+03 -0.14318336121E+03  0.44386532406E+03  0.59100532371E+03  0.17300000000E+03 0.  1.
       -6    1    1    2    0  501 -0.11375239299E+03 -0.12151802883E+03  0.37144895658E+02  0.24292999303E+03  0.17300000000E+03 0. -1.
</event>
<event>
 6   0  0.4500850E-05  0.6168129E+03  0.7546771E-02  0.1022461E+00
       21   -1    0    0  502  503  0.00000000000E+00  0.00000000000E+00  0.37142722426E+03  0.37142722426E+03  0.00000000000E+00 0. -1.
       21   -1    0    0  503  504  0.00000000000E+00  0.00000000000E+00 -0.17678346885E+04  0.17678346885E+04  0.00000000000E+00 0. -1.
        6    1    1    2  501    0  0.26486004184E+03  0.12495031106E+03 -0.18864591538E+03  0.38894691590E+03  0.17300000000E+03 0.  1.
       -6    1    1    2    0  501 -0.43956079088E+03 -0.27931437446E+03 -0.87981841391E+03  0.10369376308E+04  0.17300000000E+03 0. -1.
        6    1    1    2  502    0 -0.51035071447E+02 -0.57758448534E+02  0.49094573911E+02  0.19565248294E+03  0.17300000000E+03 0. -1.
       -6    1    1    2    0  504  0.22573582048E+03  0.21212251193E+03 -0.37703770884E+03  0.51772488312E+03  0.17300000000E+03 0. -1.
</event>
<event>
 6   0  0.4500850E-05  0.3599321E+03  0.7546771E-02  0.1075519E+00
       21   -1    0    0  504  503  0.00000000000E+00  0.00000000000E+00  0.14714441465E+04  0.14714441465E+04  0.00000000000E+00 0.  1.
       21   -1    0    0  501  504  0.00000000000E+00  0.00000000000E+00 -0.18185128701E+04  0.18185128701E+04  0.00000000000E+00 0.  1.
        6    1    1    2  501    0  0.19045679329E+03 -0.17717858991E+03 -0.14140120605E+04  0.14481108901E+04  0.17300000000E+03 0.  1.
       -6    1    1    2    0  502 -0.12981647766E+02 -0.26226542315E+03  0.34510493003E+02  0.31634103351E+03  0.17300000000E+03 0. -1.
        6    1    1    2  502    0 -0.13913941554E+03  0.52407739610E+03  0.10657864366E+03  0.57905517988E+03  0.17300000000E+03 0.  1.
       -6    1    1    2    0  503 -0.38335729987E+02 -0.84633383041E+02  0.92585420026E+03  0.94644991302E+03  0.17300000000E+03 0.  1.
</event>
<event>
 6   0  0.4500850E-05  0.5820065E+03  0.7546771E-02  0.1008027E+00
       21   -1    0    0  501  503  0.00000000000E+00  0.00000000000E+00  0.14823045748E+04  0.14823045748E+04  0.00000000000E+00 0. -1.
       21   -1    0    0  503  504  0.00000000000E+00  0.00000000000E+00 -0.12412033905E+04  0.12412033905E+04  0.00000000000E+00 0. -1.
        6    1    1    2  501    0  0.44985063839E+02 -0.34666127795E+03  0.20999949722E+03  0.44297458892E+03  0.17300000000E+03 0. -1.
       -6    1    1    2    0  504 -0.15224903089E+03  0.65460120617E+02 -0.30143226500E+03  0.38503922551E+03  0.17300000000E+03 0. -1.
        6    1    1    2  502    0 -0.22618268959E+03  0.23455603685E+03 -0.70246235833E+03  0.79344660082E+03  0.17300000000E+03 0. -1.
       -6    1    1    2    0  502  0.33344665664E+03  0.46645120490E+02  0.10349963104E+04  0.11020475501E+04  0.17300000000E+03 0.  1.
</event>
<event>
 6   0  0.4500850E-05  0.6501930E+03  0.7546771E-02  0.9807180E-01
       21   -1    0    0  502  503  0.00000000000E+00  0.00000000000E+00  0.95592229811E+03  0.95592229811E+03  0.00000000000E+00 0. -1.
       21   -1    0    0  501  504  0.00000000000E+00  0.00000000000E+00 -0.51049695735E+03  0.51049695735E+03  0.00000000000E+00 0. -1.
        6    1    1    2  501    0  0.26775680974E+03 -0.96747275922E+02 -0.52483494169E+02  0.33724955407E+03  0.17300000000E+03 0. -1.
       -6    1    1    2    0  503  0.18895395818E+03 -0.17989517085E+03  0.46978703540E+01  0.31307657337E+03  0.17300000000E+03 0. -1.
        6    1    1    2  502    0 -0.26733028246E+03  0.16621934502E+03  0.35295925542E+03  0.50359069349E+03  0.17300000000E+03 0. -1.
       -6    1    1    2    0  504 -0.18938048545E+03  0.11042310175E+03  0.14025170915E+03  0.31250243453E+03  0.17300000000E+03 0. -1.
</event>
<event>
 6   0  0.4500850E-05  0.4088398E+03  0.7546771E-02  0.1058809E+00
       21   -1    0    0  504  503  0.00000000000E+00  0.00000000000E+00  0.13674882527E+04  0.13674882527E+04  0.00000000000E+00 0. -1.
       21   -1    0    0  502  504  0.00000000000E+00  0.00000000000E+00 -0.13289346357E+04  0.13289346357E+04  0.00000000000E+00 0. -1.
        6    1    1    2  501    0  0.26280087844E+03 -0.19752144733E+03  0.92038854183E+02  0.38272597840E+03  0.17300000000E+03 0. -1.
       -6    1    1    2    0  501 -0.36782542894E+03 -0.20554479224E+02 -0.39916591479E+03  0.57007057487E+03  0.17300000000E+03 0. -1.
        6    1    1    2  502    0 -0.11928517425E+03 -0.42169669965E+02 -0.64564179209E+03  0.68028637907E+03  0.17300000000E+03 0. -1.
       -6    1    1    2    0  503  0.22430972475E+03  0.26024559652E+03  0.99132246970E+03  0.10633399560E+04  0.17300000000E+03 0.  1.
</event>
<event>
 6   0  0.4500850E-05  0.3132300E+03  0.7546771E-02  0.1092191E+00
       21   -1    0    0  504  503  0.00000000000E+00  0.00000000000E+00  0.34638384567E+03  0.34638384567E+03  0.00000000000E+00 0. -1.
       21   -1    0    0  501  504  0.00000000000E+00  0.00000000000E+00 -0.19626650057E+04  0.19626650057E+04  0.00000000000E+00 0. -1.
        6    1    1    2  501    0  0.17540281118E+02 -0.13351988139E+03 -0.69961044442E+03  0.73315686870E+03  0.17300000000E+03 0. -1.
       -6    1    1    2    0  502  0.34289081201E+03  0.12630375556E+02 -0.70367670067E+03  0.80176276691E+03  0.17300000000E+03 0. -1.
        6    1    1    2  502    0 -0.24697041541E+03 -0.43587360040E+02  0.13823686719E+03  0.33456341027E+03  0.17300000000E+03 0. -1.
       -6    1    1    2    0  503 -0.11346067772E+03  0.16447686587E+03 -0.35123088217E+03  0.43956580553E+03  0.17300000000E+03 0.  1.
</event>
<event>
 6   0  0.4500850E-05  0.2487958E+03  0.7546771E-02  0.1121466E+00
       21   -1    0    0  501  503  0.00000000000E+00  0.00000000000E+00  0.95786665744E+03  0.95786665744E+03  0.00000000000E+00 0.  1.
       21   -1    0    0  502  504  0.00000000000E+00  0.00000000000E+00 -0.93614378054E+03  0.93614378054E+03  0.00000000000E+00 0. -1.
        6    1    1    2  501    0  0.60651477987E+02  0.44953815464E+02  0.69475537784E+02  0.20113502345E+03  0.17300000000E+03 0.  1.
       -6    1    1    2    0  503  0.16706113607E+03 -0.55125714240E+02  0.51324493629E+03  0.56947136204E+03  0.17300000000E+03 0.  1.
        6    1    1    2  502    0 -0.21446017850E+02 -0.16097650474E+03  0.19225001223E+03  0.30538898796E+03  0.17300000000E+03 0. -1.
       -6    1    1    2    0  504 -0.20626659621E+03  0.17114840352E+03 -0.75324760941E+03  0.81801506454E+03  0.17300000000E+03 0. -1.
</event>
<event>
 6   0  0.4500850E-05  0.6842688E+03  0.7546771E-02  0.9747358E-01
       21   -1    0    0  502  503  0.00000000000E+00  0.00000000000E+00  0.18477429312E+03  0.18477429312E+03  0.00000000000E+00 0. -1.
       21   -1    0    0  501  504  0.00000000000E+00  0.00000000000E+00 -0.25376175247E+04  0.25376175247E+04  0.00000000000E+00 0.  1.
        6    1    1    2  501    0  0.16842360197E+03  0.79749577842E+02 -0.55568804599E+03  0.61110122674E+03  0.17300000000E+03 0.  1.
       -6    1    1    2    0  503  0.35722783523E+03  0.98435349890E+02 -0.48501126502E+03  0.63440221593E+03  0.17300000000E+03 0.  1.
        6    1    1    2  502    0 -0.13035102960E+03 -0.10168156468E+03 -0.48563186480E+03  0.54138511212E+03  0.17300000000E+03 0.  1.
       -6    1    1    2    0  504 -0.39530040761E+03 -0.76503363056E+02 -0.82651205578E+03  0.93550326304E+03  0.17300000000E+03 0. -1.
</event>
<event>
 6   0  0.4500850E-05  0.4597565E+03  0.7546771E-02  0.1057240E+00
       21   -1    0    0  502  503  0.00000000000E+00  0.00000000000E+00  0.51326546689E+03  0.51326546689E+03  0.00000000000E+00 0. -1.
       21   -1    0    0  501  504  0.00000000000E+00  0.00000000000E+00 -0.20747193605E+04  0.20747193605E+04  0.00000000000E+00 0.  1.
        6    1    1    2  501    0 -0.47627094129E+02 -0.41836332217E+01 -0.77068494472E+03  0.79130912221E+03  0.17300000000E+03 0.  1.
       -6    1    1    2    0  504  0.20052264672E+03  0.11201306984E+02 -0.31981231848E+03  0.41538382272E+03  0.17300000000E+03 0.  1.
        6    1    1    2  502    0 -0.43923461184E+03  0.88800619463E+02  0.27831000431E+03  0.55515588149E+03  0.17300000000E+03 0. -1.
       -6    1    1    2    0  503  0.28633905925E+03 -0.95818293225E+02 -0.74926663477E+03  0.82613600100E+03  0.17300000000E+03 0.  1.
</event>
<event>
 6   0  0.4500850E-05  0.3634946E+03  0.7546771E-02  0.1067586E+00
       21   -1    0    0  502  503  0.00000000000E+00  0.00000000000E+00  0.30852566364E+04  0.30852566364E+04  0.00000000000E+00 0.  1.
       21   -1    0    0  501  504  0.00000000000E+00  0.00000000000E+00 -0.58196484746E+03  0.58196484746E+03  0.00000000000E+00 0. -1.
        6    1    1    2  501    0 -0.38865243682E+02  0.43614434989E+03  0.36550281382E+03  0.59603163340E+03  0.17300000000E+03 0. -1.
       -6    1    1    2    0  503 -0.95389884782E+02  0.72383210380E+02  0.22871879172E+04  0.22968448202E+04  0.17300000000E+03 0.  1.
        6    1    1    2  502    0 -0.52110526867E+02 -0.33823847331E+03 -0.24340027782E+03  0.45419540627E+03  0.17300000000E+03 0.  1.
       -6    1    1    2    0  504  0.18636565533E+03 -0.17028908695E+03  0.94001335679E+02  0.32014962398E+03  0.17300000000E+03 0.  1.
</event>
<event>
 6   0  0.4500850E-05  0.1167255E+04  0.7546771E-02  0.9142011E-01
       -2   -1    0    0    0  501  0.00000000000E+00  0.00000000000E+00  0.15793233216E+04  0.15793233216E+04  0.00000000000E+00 0. -1.
        2   -1    0    0  503    0  0.00000000000E+00  0.00000000000E+00 -0.16706426229E+04  0.16706426229E+04  0.00000000000E+00 0.  1.
        6    1    1    2  502    0 -0.19416067197E+03  0.80168302421E+03  0.99371361630E+03  0.13029926282E+04  0.17300000000E+03 0. -1.
       -6    1    1    2    0  502  0.10851277940E+03  0.45931166704E+02 -0.12401544738E+03  0.24329719800E+03  0.17300000000E+03 0.  1.
        6    1    1    2  503    0 -0.22182075129E+03  0.99894765370E+02 -0.52218719954E+03  0.60149138083E+03  0.17300000000E+03 0. -1.
       -6    1    1    2    0  501  0.30746864385E+03 -0.94750895629E+03 -0.43883027062E+03  0.11021847375E+04  0.17300000000E+03 0.  1.
</event>
<event>
 6   0  0.4500850E-05  0.4445686E+03  0.7546771E-02  0.1060009E+00
       21   -1    0    0  502  503  0.00000000000E+00  0.00000000000E+00  0.25742881994E+04  0.25742881994E+04  0.00000000000E+00 0. -1.
       21   -1    0    0  503  504  0.00000000000E+00  0.00000000000E+00 -0.47997682045E+03  0.47997682045E+03  0.00000000000E+00 0. -1.
        6    1    1    2  501    0 -0.43575794177E+03 -0.31095943986E+02  0.59284690741E+03  0.75647101542E+03  0.17300000000E+03 0.  1.
       -6    1    1    2    0  501  0.46414206206E+01  0.22640225646E+03  0.65891285839E+03  0.71789600881E+03  0.17300000000E+03 0. -1.
        6    1    1    2  502    0  0.52375963167E+02 -0.32619734453E+02  0.10648967472E+04  0.10806208266E+04  0.17300000000E+03 0. -1.
       -6    1    1    2    0  504  0.37874055798E+03 -0.16268657802E+03 -0.22234513403E+03  0.49927716907E+03  0.17300000000E+03 0. -1.
</event>
<event>
 6   0  0.4500850E-05  0.4010571E+03  0.7546771E-02  0.1045525E+00
       21   -1    0    0  502  503  0.00000000000E+00  0.00000000000E+00  0.98932259865E+03  0.98932259865E+03  0.00000000000E+00 0. -1.
       21   -1    0    0  503  504  0.00000000000E+00  0.00000000000E+00 -0.19389420985E+04  0.19389420985E+04  0.00000000000E+00 0. -1.
        6    1    1    2  501    0 -0.55390916331E+01 -0.55056721779E+03 -0.18136703985E+03  0.60496111114E+03  0.17300000000E+03 0. -1.
       -6    1    1    2    0  504 -0.30776677870E+02  0.33541333309E+03 -0.12335638285E+04  0.12903712748E+04  0.17300000000E+03 0.  1.
        6    1    1    2  502    0 -0.23763184870E+03  0.40862449715E+03  0.41469545128E+03  0.65218417069E+03  0.17300000000E+03 0. -1.
       -6    1    1    2    0  501  0.27394761820E+03 -0.19347061245E+03  0.50615917244E+02  0.38074814048E+03  0.17300000000E+03 0. -1.
</event>
<event>
 6   0  0.4500850E-05  0.2075303E+03  0.7546771E-02  0.1147213E+00
       21   -1    0    0  504  503  0.00000000000E+00  0.00000000000E+00  0.15233585014E+03  0.15233585014E+03  0.00000000000E+00 0.  1.
       21   -1    0    0  502  504  0.00000000000E+00  0.00000000000E+00 -0.12109531563E+04  0.12109531563E+04  0.00000000000E+00 0. -1.
        6    1    1    2  501    0  0.14239429917E+03  0.11291900808E+03 -0.32346252414E+03  0.40937005672E+03  0.17300000000E+03 0.  1.
       -6    1    1    2    0  503 -0.91117177164E+02  0.14015719053E+02 -0.13395715073E+03  0.23742851258E+03  0.17300000000E+03 0.  1.
        6    1    1    2  502    0 -0.58858092119E+02 -0.25089108218E+02 -0.23430465577E+03  0.29819693170E+03  0.17300000000E+03 0. -1.
       -6    1    1    2    0  501  0.75809701173E+01 -0.10184561891E+03 -0.36689297557E+03  0.41829350548E+03  0.17300000000E+03 0.  1.
</event>
<event>
 6   0  0.4500850E-05  0.4346514E+03  0.7546771E-02  0.1032401E+00
       -1   -1    0    0    0  501  0.00000000000E+00  0.00000000000E+00  0.89345187707E+03  0.89345187707E+03  0.00000000000E+00 0. -1.
        1   -1    0    0  502    0  0.00000000000E+00  0.00000000000E+00 -0.37311700961E+03  0.37311700961E+03  0.00000000000E+00 0.  1.
        6    1    1    2  502    0  0.54605493384E+02  0.17094073904E+03  0.23828759415E+03  0.34483687984E+03  0.17300000000E+03 0.  1.
       -6    1    1    2    0  501  0.15483101180E+03 -0.86494784802E+02  0.14397168564E+03  0.28654988445E+03  0.17300000000E+03 0.  1.
        6    1    1    2  503    0 -0.19256085532E+03 -0.81387753147E+02 -0.14144775721E+03  0.30600672768E+03  0.17300000000E+03 0. -1.
       -6    1    1    2    0  503 -0.16875649860E+02 -0.30582010878E+01  0.27952334487E+03  0.32917539471E+03  0.17300000000E+03 0. -1.
</event>
<event>
 6   0  0.4500850E-05  0.2148656E+03  0.7546771E-02  0.1143533E+00
       21   -1    0    0  504  503  0.00000000000E+00  0.00000000000E+00  0.13505774850E+04  0.13505774850E+04  0.00000000000E+00 0. -1.
       21   -1    0    0  502  504  0.00000000000E+00  0.00000000000E+00 -0.20144307582E+03  0.20144307582E+03  0.00000000000E+00 0.  1.
        6    1    1    2  501    0  0.64665645637E+02  0.83472996301E+02  0.49935766521E+03  0.53892157559E+03  0.17300000000E+03 0. -1.
       -6    1    1    2    0  503 -0.15818620021E+03  0.11548875876E+02  0.35735359918E+03  0.42753578250E+03  0.17300000000E+03 0.  1.
        6    1    1    2  502    0  0.67702609781E+02 -0.14515198252E+03  0.32419319968E+03  0.40085280605E+03  0.17300000000E+03 0. -1.
       -6    1    1    2    0  501  0.25817944797E+02  0.50130110344E+02 -0.31770054930E+02  0.18471039664E+03  0.17300000000E+03 0.  1.
</event>
<event>
 6   0  0.4500850E-05  0.2942266E+03  0.7546771E-02  0.1099869E+00
       21   -1    0    0  502  503  0.00000000000E+00  0.00000000000E+00  0.11537625764E+04  0.11537625764E+04  0.00000000000E+00 0. -1.
       21   -1    0    0  503  504  0.00000000000E+00  0.00000000000E+00 -0.84823909250E+03  0.84823909250E+03  0.00000000000E+00 0. -1.
        6    1    1    2  501    0 -0.34288853969E+03 -0.48040436841E+02 -0.55026388554E+03  0.67275536263E+03  0.17300000000E+03 0. -1.
       -6    1    1    2    0  504  0.74967238591E+02  0.16155907047E+03 -0.36847014717E+02  0.25101418806E+03  0.17300000000E+03 0.  1.
        6    1    1    2  502    0  0.31927225224E+03 -0.14425262410E+03  0.75176974425E+03  0.84724868780E+03  0.17300000000E+03 0. -1.
       -6    1    1    2    0  501 -0.51350951146E+02  0.30733990477E+02  0.14086463995E+03  0.23098343045E+03  0.17300000000E+03 0.  1.
</event>
<event>
 6   0  0.4500850E-05  0.2670192E+03  0.7546771E-02  0.1116981E+00
       21   -1    0    0  502  503  0.00000000000E+00  0.00000000000E+00  0.26589632974E+04  0.26589632974E+04  0.00000000000E+00 0. -1.
       21   -1    0    0  501  504  0.00000000000E+00  0.00000000000E+00 -0.22921117941E+03  0.22921117941E+03  0.00000000000E+00 0.  1.
        6    1    1    2  501    0 -0.15462632226E+03 -0.10107299640E+03  0.94946157888E+03  0.98261454290E+03  0.17300000000E+03 0. -1.
       -6    1    1    2    0  504  0.27342277836E+02 -0.12067903047E+02 -0.97922133551E+02  0.20102482106E+03  0.17300000000E+03 0.  1.
        6    1    1    2  502    0  0.10171692977E+03 -0.17715850283E+03  0.42259003566E+03  0.50024274824E+03  0.17300000000E+03 0.  1.
       -6    1    1    2    0  503  0.25567114660E+02  0.29029940228E+03  0.11556226370E+04  0.12042923646E+04  0.17300000000E+03 0. -1.
</event>
<event>
 6   0  0.4500850E-05  0.1156211E+04  0.7546771E-02  0.9152073E-01
        1   -1    0    0  502    0  0.00000000000E+00  0.00000000000E+00  0.12732122681E+04  0.12732122681E+04  0.00000000000E+00 0. -1.
       -1   -1    0    0    0  501  0.00000000000E+00  0.00000000000E+00 -0.11323161138E+04  0.11323161138E+04  0.00000000000E+00 0.  1.
        6    1    1    2  502    0  0.10734887538E+03 -0.34721147350E+03 -0.24220947500E+03  0.46975953227E+03  0.17300000000E+03 0.  1.
       -6    1    1    2    0  501 -0.33212683108E+03  0.81571495338E+03  0.18085594562E+03  0.91560744326E+03  0.17300000000E+03 0. -1.
        6    1    1    2  503    0 -0.26180974193E+02 -0.46770933885E+03 -0.18039498261E+03  0.53095086289E+03  0.17300000000E+03 0.  1.
       -6    1    1    2    0  503  0.25095892989E+03 -0.79414102134E+00  0.38264466628E+03  0.48921054341E+03  0.17300000000E+03 0.  1.
</event>
<event>
 6   0  0.4500850E-05  0.2119177E+03  0.7546771E-02  0.1143684E+00
       21   -1    0    0  502  503  0.00000000000E+00  0.00000000000E+00  0.18641356414E+04  0.18641356414E+04  0.00000000000E+00 0.  1.
       21   -1    0    0  503  504  0.00000000000E+00  0.00000000000E+00 -0.12467144349E+03  0.12467144349E+03  0.00000000000E+00 0. -1.
        6    1    1    2  501    0 -0.41663563454E+02  0.74363393090E+02  0.22621608760E+03  0.29726837208E+03  0.17300000000E+03 0.  1.
       -6    1    1    2    0  504 -0.11338926424E+03 -0.12808333701E+03  0.20779592768E+03  0.31995408112E+03  0.17300000000E+03 0. -1.
        6    1    1    2  502    0  0.13647319715E+03  0.72087577132E+02  0.91159577931E+03  0.94061544596E+03  0.17300000000E+03 0.  1.
       -6    1    1    2    0  501  0.18579630538E+02 -0.18367633211E+02  0.39385640331E+03  0.43096918573E+03  0.17300000000E+03 0.  1.
</event>
<event>
 6   0  0.4500850E-05  0.2611215E+03  0.7546771E-02  0.1116298E+00
       21   -1    0    0  501  503  0.00000000000E+00  0.00000000000E+00  0.52168040906E+03  0.52168040906E+03  0.00000000000E+00 0. -1.
       21   -1    0    0  502  504  0.00000000000E+00  0.00000000000E+00 -0.57781706334E+03  0.57781706334E+03  0.00000000000E+00 0.  1.
        6    1    1    2  501    0 -0.18910830566E+03 -0.19506999122E+02 -0.22078074135E+03  0.33884452192E+03  0.17300000000E+03 0.  1.
       -6    1    1    2    0  503  0.82502455473E+02  0.10425724899E+03 -0.26999647411E+02  0.21985042662E+03  0.17300000000E+03 0. -1.
        6    1    1    2  502    0 -0.10687253711E+03 -0.56567668130E+01  0.14797514538E+03  0.25155393427E+03  0.17300000000E+03 0. -1.
       -6    1    1    2    0  504  0.21347838730E+03 -0.79093483053E+02  0.43668589101E+02  0.28924858959E+03  0.17300000000E+03 0. -1.
</event>
<event>
 6   0  0.4500850E-05  0.8727857E+03  0.7546771E-02  0.9460255E-01
        1   -1    0    0  503    0  0.00000000000E+00  0.00000000000E+00  0.55273599110E+03  0.55273599110E+03  0.00000000000E+00 0. -1.
       -1   -1    0    0    0  501  0.00000000000E+00  0.00000000000E+00 -0.27007791790E+04  0.27007791790E+04  0.00000000000E+00 0.  1.
        6    1    1    2  502    0 -0.13295329476E+03  0.15726234828E+03 -0.33197373480E+03  0.42725119704E+03  0.17300000000E+03 0.  1.
       -6    1    1    2    0  501 -0.64646682731E+03 -0.27248568338E+03 -0.10820723660E+04  0.13011446544E+04  0.17300000000E+03 0.  1.
        6    1    1    2  503    0  0.51231098314E+03  0.15055901373E+03  0.15326394835E+03  0.58184997888E+03  0.17300000000E+03 0. -1.
       -6    1    1    2    0  502  0.26710913893E+03 -0.35335678624E+02 -0.88726103551E+03  0.94326933981E+03  0.17300000000E+03 0. -1.
</event>
<event>
 6   0  0.4500850E-05  0.2821759E+03  0.7546771E-02  0.1100997E+00
       21   -1    0    0  504  503  0.00000000000E+00  0.00000000000E+00  0.24155573926E+03  0.24155573926E+03  0.00000000000E+00 0. -1.
       21   -1    0    0  501  504  0.00000000000E+00  0.00000000000E+00 -0.13939032975E+04  0.13939032975E+04  0.00000000000E+00 0.  1.
        6    1    1    2  501    0  0.67580803163E+02  0.12479237035E+03 -0.20878084822E+03  0.30603715990E+03  0.17300000000E+03 0. -1.
       -6    1    1    2    0  502  0.16577263522E+03 -0.32376661564E+03 -0.26629695504E+03  0.48285448766E+03  0.17300000000E+03 0. -1.
        6    1    1    2  502    0 -0.29813740346E+01  0.10321482959E+03 -0.31480461336E+03  0.37375544709E+03  0.17300000000E+03 0.  1.
       -6    1    1    2    0  503 -0.23037206435E+03  0.95759415695E+02 -0.36246514166E+03  0.47281194215E+03  0.17300000000E+03 0.  1.
</event>
<event>
 6   0  0.4500850E-05  0.3598921E+03  0.7546771E-02  0.1080745E+00
       21   -1    0    0  501  503  0.00000000000E+00  0.00000000000E+00  0.44907294641E+03  0.44907294641E+03  0.00000000000E+00 0. -1.
       21   -1    0    0  502  504  0.00000000000E+00  0.00000000000E+00 -0.82973530050E+03  0.82973530050E+03  0.00000000000E+00 0. -1.
        6    1    1    2  501    0 -0.72273594513E+01 -0.91844794832E+02  0.98248756811E+02  0.21924762092E+03  0.17300000000E+03 0. -1.
       -6    1    1    2    0  503 -0.82778728703E+02 -0.54898396779E+02 -0.64454014369E+02  0.20964129331E+03  0.17300000000E+03 0.  1.
        6    1    1    2  502    0  0.11103705412E+03 -0.23048147465E+03 -0.86974167745E+02  0.32084956506E+03  0.17300000000E+03 0.  1.
       -6    1    1    2    0  504 -0.21030965970E+02  0.37722466626E+03 -0.32748292879E+03  0.52906976762E+03  0.17300000000E+03 0. -1.
</event>
<event>
 6   0  0.4500850E-05  0.2321336E+03  0.7546771E-02  0.1132486E+00
       21   -1    0    0  501  503  0.00000000000E+00  0.00000000000E+00  0.86082769554E+03  0.86082769554E+03  0.00000000000E+00 0. -1.
       21   -1    0    0  502  504  0.00000000000E+00  0.00000000000E+00 -0.23790348955E+03  0.23790348955E+03  0.00000000000E+00 0. -1.
        6    1    1    2  501    0 -0.13884373477E+03  0.72116550118E+02  0.77804857396E+02  0.24588813579E+03  0.17300000000E+03 0. -1.
       -6    1    1    2    0  503 -0.66574435964E+02  0.56451072666E+02  0.24112330318E+03  0.30933529780E+03  0.17300000000E+03 0. -1.
        6    1    1    2  502    0  0.11389050770E+03  0.69603136769E+01  0.18293909834E+03  0.27643300709E+03  0.17300000000E+03 0. -1.
       -6    1    1    2    0  504  0.91527663033E+02 -0.13552793646E+03  0.12105694708E+03  0.26707474440E+03  0.17300000000E+03 0. -1.
</event>
<event>
 6   0  0.4500850E-05  0.4256197E+03  0.7546771E-02  0.1042577E+00
       21   -1    0    0  501  503  0.00000000000E+00  0.00000000000E+00  0.26475556874E+04  0.26475556874E+04  0.00000000000E+00 0.  1.
       21   -1    0    0  502  504  0.00000000000E+00  0.00000000000E+00 -0.66614459975E+03  0.66614459975E+03  0.00000000000E+00 0.  1.
        6    1    1    2  501    0 -0.23076578939E+02  0.29617349313E+03  0.19286799726E+04  0.19590780238E+04  0.17300000000E+03 0.  1.
       -6    1    1    2    0  503 -0.35273423817E+03 -0.74776460987E+02  0.11041991715E+03  0.41489097363E+03  0.17300000000E+03 0. -1.
        6    1    1    2  502    0  0.38668366157E+03  0.11184645030E+03 -0.26364525024E+03  0.51134303607E+03  0.17300000000E+03 0.  1.
       -6    1    1    2    0  504 -0.10872844459E+02 -0.33324348244E+03  0.20595644808E+03  0.42838825362E+03  0.17300000000E+03 0. -1.
</event>
<event>
 6   0  0.4500850E-05  0.1834078E+03  0.7546771E-02  0.1165487E+00
       21   -1    0    0  504  503  0.00000000000E+00  0.00000000000E+00  0.35013742218E+04  0.35013742218E+04  0.00000000000E+00 0.  1.
       21   -1    0    0  501  504  0.00000000000E+00  0.00000000000E+00 -0.20494405350E+03  0.20494405350E+03  0.00000000000E+00 0.  1.
        6    1    1    2  501    0  0.20110379607E+02 -0.10382113987E+02  0.22052801414E+03  0.28120067688E+03  0.17300000000E+03 0. -1.
       -6    1    1    2    0  503  0.11679480174E+02  0.41647448747E+02  0.25679354184E+04  0.25741197007E+04  0.17300000000E+03 0.  1.
        6    1    1    2  502    0 -0.58472271807E+02 -0.85706247987E+02  0.60909971087E+03  0.64163543021E+03  0.17300000000E+03 0.  1.
       -6    1    1    2    0  502  0.26682412026E+02  0.54440913227E+02 -0.10113297514E+03  0.20936246752E+03  0.17300000000E+03 0.  1.
</event>
<event>
 6   0  0.4500850E-05  0.4041604E+03  0.7546771E-02  0.1058941E+00
       21   -1    0    0  501  503  0.00000000000E+00  0.00000000000E+00  0.13199508186E+04  0.13199508186E+04  0.00000000000E+00 0.  1.
       21   -1    0    0  502  504  0.00000000000E+00  0.00000000000E+00 -0.12451207800E+04  0.12451207800E+04  0.00000000000E+00 0.  1.
        6    1    1    2  501    0 -0.12137347225E+03 -0.97322318138E+02  0.67357505905E+03  0.71262578788E+03  0.17300000000E+03 0.  1.
       -6    1    1    2    0  504 -0.18013966558E+03 -0.19834313652E+03  0.29866316364E+03  0.43694276998E+03  0.17300000000E+03 0. -1.
        6    1    1    2  502    0  0.52585082909E+02 -0.31907418157E+03 -0.51000592340E+03  0.62817876929E+03  0.17300000000E+03 0. -1.
       -6    1    1    2    0  503  0.24892805492E+03  0.61473963622E+03 -0.38740226069E+03  0.78732427148E+03  0.17300000000E+03 0.  1.
</event>
<event>
 6   0  0.4500850E-05  0.4296872E+03  0.7546771E-02  0.1057739E+00
       21   -1    0    0  504  503  0.00000000000E+00  0.00000000000E+00  0.13822539796E+04  0.13822539796E+04  0.00000000000E+00 0.  1.
       21   -1    0    0  502  504  0.00000000000E+00  0.00000000000E+00 -0.92936254354E+03  0.92936254354E+03  0.00000000000E+00 0. -1.
        6    1    1    2  501    0  0.45474422913E+02  0.12249258615E+03  0.62436424116E+03  0.66093272157E+03  0.17300000000E+03 0. -1.
       -6    1    1    2    0  503 -0.13787182206E+03 -0.21428201542E+03  0.47498602469E+03  0.56609729297E+03  0.17300000000E+03 0.  1.
        6    1    1    2  502    0  0.23365664067E+03  0.38719483889E+03 -0.46836678167E+03  0.67365548403E+03  0.17300000000E+03 0. -1.
       -6    1    1    2    0  501 -0.14125924152E+03 -0.29540540962E+03 -0.17809204814E+03  0.41093102457E+03  0.17300000000E+03 0.  1.
</event>
<event>
 6   0  0.4500850E-05  0.2865438E+03  0.7546771E-02  0.1092379E+00
       21   -1    0    0  502  503  0.00000000000E+00  0.00000000000E+00  0.18729252611E+04  0.18729252611E+04  0.00000000000E+00 0. -1.
       21   -1    0    0  501  504  0.00000000000E+00  0.00000000000E+00 -0.72392509782E+03  0.72392509782E+03  0.00000000000E+00 0. -1.
        6    1    1    2  501    0 -0.18409987614E+03 -0.36127036040E+02 -0.45169681961E+03  0.51880337699E+03  0.17300000000E+03 0. -1.
       -6    1    1    2    0  503  0.14384006857E+03 -0.22424491485E+03 -0.37971987129E+01  0.31767777052E+03  0.17300000000E+03 0.  1.
        6    1    1    2  502    0  0.18100948844E+03 -0.76599512560E+02  0.99658084941E+03  0.10304049251E+04  0.17300000000E+03 0. -1.
       -6    1    1    2    0  504 -0.14074968088E+03  0.33697146345E+03  0.60791333222E+03  0.72996428634E+03  0.17300000000E+03 0. -1.
</event>
<event>
 6   0  0.4500850E-05  0.3382826E+03  0.7546771E-02  0.1074745E+00
       21   -1    0    0  504  503  0.00000000000E+00  0.00000000000E+00  0.20217874552E+03  0.20217874552E+03  0.00000000000E+00 0.  1.
       21   -1    0    0  502  504  0.00000000000E+00  0.00000000000E+00 -0.13478871884E+04  0.13478871884E+04  0.00000000000E+00 0.  1.
        6    1    1    2  501    0  0.19097438434E+03  0.13858413945E+03 -0.86410445988E+02  0.30507793161E+03  0.17300000000E+03 0.  1.
       -6    1    1    2    0  503 -0.13016355377E+03 -0.14090257074E+02 -0.30518722619E+03  0.37444536197E+03  0.17300000000E+03 0. -1.
        6    1    1    2  502    0 -0.44195328863E+02  0.18180055715E+02 -0.18100137533E+03  0.25490044996E+03  0.17300000000E+03 0.  1.
       -6    1    1    2    0  501 -0.16615501700E+02 -0.14267393809E+03 -0.57310939535E+03  0.61564219036E+03  0.17300000000E+03 0.  1.
</event>
<event>
 6   0  0.4500850E-05  0.4590091E+03  0.7546771E-02  0.1051976E+00
       21   -1    0    0  501  503  0.00000000000E+00  0.00000000000E+00  0.44235058720E+03  0.44235058720E+03  0.00000000000E+00 0. -1.
       21   -1    0    0  502  504  0.00000000000E+00  0.00000000000E+00 -0.15324711147E+04  0.15324711147E+04  0.00000000000E+00 0. -1.
        6    1    1    2  501    0 -0.70443748994E+02 -0.94440254270E+02  0.24886833266E+03  0.32518568603E+03  0.17300000000E+03 0. -1.
       -6    1    1    2    0  503 -0.88764889626E+02  0.88392095221E+02 -0.54744571629E+03  0.58763779696E+03  0.17300000000E+03 0.  1.
        6    1    1    2  502    0 -0.16384108507E+03 -0.44130247343E+01 -0.60587349712E+03  0.65105688727E+03  0.17300000000E+03 0. -1.
       -6    1    1    2    0  504  0.32304972369E+03  0.10461183783E+02 -0.18566964674E+03  0.41094133165E+03  0.17300000000E+03 0. -1.
</event>
<event>
 6   0  0.4500850E-05  0.2391699E+03  0.7546771E-02  0.1126654E+00
       21   -1    0    0  502  503  0.00000000000E+00  0.00000000000E+00  0.65437460503E+03  0.65437460503E+03  0.00000000000E+00 0.  1.
       21   -1    0    0  503  504  0.00000000000E+00  0.00000000000E+00 -0.10650075246E+04  0.10650075246E+04  0.00000000000E+00 0. -1.
        6    1    1    2  501    0  0.11404907224E+03 -0.52524938248E+02 -0.91693066406E+02  0.23259982469E+03  0.17300000000E+03 0.  1.
       -6    1    1    2    0  501  0.31676244469E+02 -0.23928729872E+03  0.26167924285E+03  0.39581159904E+03  0.17300000000E+03 0.  1.
        6    1    1    2  502    0 -0.14476369095E+02  0.48106765439E+02  0.18527620280E+03  0.25841845419E+03  0.17300000000E+03 0. -1.
       -6    1    1    2    0  504 -0.13124894762E+03  0.24370547153E+03 -0.76589529884E+03  0.83255225175E+03  0.17300000000E+03 0. -1.
</event>
<event>
 6   0  0.4500850E-05  0.2183598E+03  0.7546771E-02  0.1136142E+00
       21   -1    0    0  502  503  0.00000000000E+00  0.00000000000E+00  0.72105257524E+03  0.72105257524E+03  0.00000000000E+00 0.  1.
       21   -1    0    0  503  504  0.00000000000E+00  0.00000000000E+00 -0.51917156654E+03  0.51917156654E+03  0.00000000000E+00 0.  1.
        6    1    1    2  501    0 -0.80965738603E+02 -0.15352097466E+02  0.79106597331E+02  0.20731133945E+03  0.17300000000E+03 0. -1.
       -6    1    1    2    0  504 -0.87309181661E+02 -0.94975914261E+01 -0.21390563115E+03  0.28878662795E+03  0.17300000000E+03 0.  1.
        6    1    1    2  502    0 -0.25131074806E+02  0.14056044747E+03  0.39484418090E+03  0.45411423398E+03  0.17300000000E+03 0.  1.
       -6    1    1    2    0  501  0.19340599507E+03 -0.11571075858E+03 -0.58164138385E+02  0.29001194040E+03  0.17300000000E+03 0.  1.
</event>
<event>
 6   0  0.4500850E-05  0.3389352E+03  0.7546771E-02  0.1083456E+00
       21   -1    0    0  501  503  0.00000000000E+00  0.00000000000E+00  0.14685501775E+04  0.14685501775E+04  0.00000000000E+00 0. -1.
       21   -1    0    0  502  504  0.00000000000E+00  0.00000000000E+00 -0.25089611463E+03  0.25089611463E+03  0.00000000000E+00 0. -1.
        6    1    1    2  501    0  0.20829618234E+03 -0.25239931977E+03  0.56069916372E+03  0.67186700201E+03  0.17300000000E+03 0. -1.
       -6    1    1    2    0  503 -0.79061384473E+02  0.22988224270E+03  0.15067410608E+03  0.33425773628E+03  0.17300000000E+03 0. -1.
        6    1    1    2  502    0  0.79857092386E+02  0.10630869123E+03  0.20807650030E+03  0.30150211112E+03  0.17300000000E+03 0.  1.
       -6    1    1    2    0  504 -0.20909189026E+03 -0.83791614156E+02  0.29820429282E+03  0.41181944276E+03  0.17300000000E+03 0.  1.
</event>
<event>
 6   0  0.4500850E-05  0.4311592E+03  0.7546771E-02  0.1041151E+00
       21   -1    0    0  504  503  0.00000000000E+00  0.00000000000E+00  0.89105895922E+03  0.89105895922E+03  0.00000000000E+00 0. -1.
       21   -1    0    0  502  504  0.00000000000E+00  0.00000000000E+00 -0.67127706796E+03  0.67127706796E+03  0.00000000000E+00 0. -1.
        6    1    1    2  501    0 -0.33100772866E+03 -0.40366134101E+02  0.37078525428E+03  0.52783164551E+03  0.17300000000E+03 0.  1.
       -6    1    1    2    0  503  0.15096103618E+03 -0.67592619206E+02  0.16046974348E+03  0.28816234172E+03  0.17300000000E+03 0. -1.
        6    1    1    2  502    0  0.17389926204E+03 -0.13506508791E+03  0.42676025791E+02  0.28325566982E+03  0.17300000000E+03 0. -1.
       -6    1    1    2    0  501  0.61474304417E+01  0.24302384121E+03 -0.35414913228E+03  0.46308637012E+03  0.17300000000E+03 0. -1.
</event>
<event>
 6   0  0.4500850E-05  0.2133655E+03  0.7546771E-02  0.1138995E+00
       21   -1    0    0  502  503  0.00000000000E+00  0.00000000000E+00  0.28331106442E+03  0.28331106442E+03  0.00000000000E+00 0.  1.
       21   -1    0    0  501  504  0.00000000000E+00  0.00000000000E+00 -0.26463429262E+04  0.26463429262E+04  0.00000000000E+00 0. -1.
        6    1    1    2  501    0 -0.18293817422E+03 -0.62374769483E+02 -0.43861022625E+02  0.26307751094E+03  0.17300000000E+03 0. -1.
       -6    1    1    2    0  503 -0.16813883303E+02  0.89061014513E+02 -0.20662272490E+04  0.20754369698E+04  0.17300000000E+03 0. -1.
        6    1    1    2  502    0  0.17374773055E+03  0.16278763663E+02  0.38291646165E+02  0.24869363117E+03  0.17300000000E+03 0.  1.
       -6    1    1    2    0  504  0.26004326975E+02 -0.42965008692E+02 -0.29123523627E+03  0.34244587870E+03  0.17300000000E+03 0. -1.
</event>
<event>
 6   0  0.4500850E-05  0.2582497E+03  0.7546771E-02  0.1110782E+00
       21   -1    0    0  502  503  0.00000000000E+00  0.00000000000E+00  0.11228353804E+04  0.11228353804E+04  0.00000000000E+00 0.  1.
       21   -1    0    0  501  504  0.00000000000E+00  0.00000000000E+00 -0.18357373861E+04  0.18357373861E+04  0.00000000000E+00 0.  1.
        6    1    1    2  501    0 -0.61342636126E+02  0.30798126630E+02 -0.86989227874E+03  0.88958024946E+03  0.17300000000E+03 0.  1.
       -6    1    1    2    0  503 -0.23866824097E+03  0.84415707222E+02 -0.81049533990E+03  0.86655653992E+03  0.17300000000E+03 0. -1.
        6    1    1    2  502    0  0.35153328951E+01  0.21135811482E+02  0.75803178576E+03  0.77781763179E+03  0.17300000000E+03 0.  1.
       -6    1    1    2    0  504  0.29649554420E+03 -0.13634964533E+03  0.20945382720E+03  0.42461834539E+03  0.17300000000E+03 0. -1.
</event>
<event>
 6   0  0.4500850E-05  0.3892261E+03  0.7546771E-02  0.1062265E+00
       21   -1    0    0  501  503  0.00000000000E+00  0.00000000000E+00  0.32370833588E+04  0.32370833588E+04  0.00000000000E+00 0. -1.
       21   -1    0    0  502  504  0.00000000000E+00  0.00000000000E+00 -0.36381952356E+03  0.36381952356E+03  0.00000000000E+00 0. -1.
        6    1    1    2  501    0  0.79576439089E+02  0.83025511070E+02  0.20155391195E+04  0.20262163230E+04  0.17300000000E+03 0. -1.
       -6    1    1    2    0  504 -0.27976811758E+03 -0.61840205814E+01  0.16034000054E+03  0.36598682695E+03  0.17300000000E+03 0.  1.
        6    1    1    2  502    0  0.52762087558E+03 -0.23259732030E+00  0.60142599083E+03  0.81855119870E+03  0.17300000000E+03 0. -1.
       -6    1    1    2    0  503 -0.32742919709E+03 -0.76608893169E+02  0.95958724360E+02  0.39014853377E+03  0.17300000000E+03 0. -1.
</event>
<event>
 6   0  0.4500850E-05  0.2749532E+03  0.7546771E-02  0.1099913E+00
       21   -1    0    0  504  503  0.00000000000E+00  0.00000000000E+00  0.83995785137E+03  0.83995785137E+03  0.00000000000E+00 0. -1.
       21   -1    0    0  502  504  0.00000000000E+00  0.00000000000E+00 -0.87378809528E+03  0.87378809528E+03  0.00000000000E+00 0.  1.
        6    1    1    2  501    0  0.23196265963E+03  0.25084239608E+03  0.18220851620E+03  0.42409612885E+03  0.17300000000E+03 0. -1.
       -6    1    1    2    0  503 -0.50289577803E+02 -0.12825484244E+03  0.34873020772E+03  0.41294079966E+03  0.17300000000E+03 0. -1.
        6    1    1    2  502    0 -0.32672185941E+03 -0.79297507458E+02 -0.15864176865E+03  0.41003838707E+03  0.17300000000E+03 0. -1.
       -6    1    1    2    0  501  0.14504877759E+03 -0.43290046184E+02 -0.40612719918E+03  0.46667063106E+03  0.17300000000E+03 0.  1.
</event>
<event>
 6   0  0.4500850E-05  0.3632423E+03  0.7546771E-02  0.1079030E+00
       21   -1    0    0  501  503  0.00000000000E+00  0.00000000000E+00  0.29539438449E+03  0.29539438449E+03  0.00000000000E+00 0. -1.
       21   -1    0    0  503  504  0.00000000000E+00  0.00000000000E+00 -0.19490379717E+04  0.19490379717E+04  0.00000000000E+00 0. -1.
        6    1    1    2  501    0 -0.10555958261E+03 -0.39670021848E+02  0.81543246726E+01  0.20666888766E+03  0.17300000000E+03 0.  1.
       -6    1    1    2    0  504 -0.20121102994E+03  0.25889142126E+03 -0.26638454526E+03  0.45650889643E+03  0.17300000000E+03 0. -1.
        6    1    1    2  502    0  0.20905731695E+03 -0.23874827476E+03 -0.13187715716E+04  0.13674038023E+04  0.17300000000E+03 0. -1.
       -6    1    1    2    0  502  0.97713295602E+02  0.19526875349E+02 -0.76641794993E+02  0.21385076979E+03  0.17300000000E+03 0.  1.
</event>
<event>
 6   0  0.4500850E-05  0.2492695E+03  0.7546771E-02  0.1118051E+00
       21   -1    0    0  504  503  0.00000000000E+00  0.00000000000E+00  0.13294445554E+04  0.13294445554E+04  0.00000000000E+00 0.  1.
       21   -1    0    0  502  504  0.00000000000E+00  0.00000000000E+00 -0.58516000256E+03  0.58516000256E+03  0.00000000000E+00 0. -1.
        6    1    1    2  501    0 -0.13633084143E+03 -0.28470695256E+03  0.10359547253E+04  0.10967111470E+04  0.17300000000E+03 0.  1.
       -6    1    1    2    0  501  0.15585693748E+03  0.14490827559E+03 -0.12286061702E+03  0.30052208656E+03  0.17300000000E+03 0. -1.
        6    1    1    2  502    0 -0.24915177772E+02  0.94498930974E+02 -0.25129594996E+03  0.32035834390E+03  0.17300000000E+03 0. -1.
       -6    1    1    2    0  503  0.53890817219E+01  0.45299745996E+02  0.82486394507E+02  0.19701298046E+03  0.17300000000E+03 0.  1.
</event>
<event>
 6   0  0.4500850E-05  0.2622448E+03  0.7546771E-02  0.1113417E+00
       21   -1    0    0  502  503  0.00000000000E+00  0.00000000000E+00  0.47238237722E+03  0.47238237722E+03  0.00000000000E+00 0.  1.
       21   -1    0    0  501  504  0.00000000000E+00  0.00000000000E+00 -0.13605415690E+04  0.13605415690E+04  0.00000000000E+00 0.  1.
        6    1    1    2  501    0  0.11623736077E+03 -0.91672329207E+02  0.18617297826E+03  0.29411616381E+03  0.17300000000E+03 0.  1.
       -6    1    1    2    0  504  0.99140649443E+02 -0.21086709416E+03 -0.79020101333E+03  0.84180784105E+03  0.17300000000E+03 0.  1.
        6    1    1    2  502    0 -0.26109193690E+03  0.24628177020E+03 -0.57104436341E+02  0.40250916324E+03  0.17300000000E+03 0.  1.
       -6    1    1    2    0  503  0.45713926687E+02  0.56257653165E+02 -0.22702672034E+03  0.29449077809E+03  0.17300000000E+03 0. -1.
</event>
<event>
 6   0  0.4500850E-05  0.2896241E+03  0.7546771E-02  0.1094769E+00
       21   -1    0    0  502  503  0.00000000000E+00  0.00000000000E+00  0.34619783048E+03  0.34619783048E+03  0.00000000000E+00 0.  1.
       21   -1    0    0  501  504  0.00000000000E+00  0.00000000000E+00 -0.14931493657E+04  0.14931493657E+04  0.00000000000E+00 0.  1.
        6    1    1    2  501    0  0.15287361203E+03  0.13569336464E+03  0.82705170990E+02  0.28027161071E+03  0.17300000000E+03 0.  1.
       -6    1    1    2    0  503  0.25280971039E+03  0.76969001972E+02 -0.26330629159E+03  0.41121305929E+03  0.17300000000E+03 0. -1.
        6    1    1    2  502    0 -0.25904008761E+03 -0.17529336074E+03 -0.39880317308E+03  0.53553944782E+03  0.17300000000E+03 0.  1.
       -6    1    1    2    0  504 -0.14664323481E+03 -0.37369005868E+02 -0.56754724155E+03  0.61232307837E+03  0.17300000000E+03 0.  1.
</event>
<event>
 6   0  0.4500850E-05  0.2302630E+03  0.7546771E-02  0.1129403E+00
       21   -1    0    0  501  503  0.00000000000E+00  0.00000000000E+00  0.18269296111E+04  0.18269296111E+04  0.00000000000E+00 0.  1.
       21   -1    0    0  502  504  0.00000000000E+00  0.00000000000E+00 -0.72124357442E+03  0.72124357442E+03  0.00000000000E+00 0. -1.
        6    1    1    2  501    0 -0.15848237695E+03  0.70698545847E+02 -0.29222296288E+02  0.24677498007E+03  0.17300000000E+03 0.  1.
       -6    1    1    2    0  504  0.13963385907E+03  0.79114797379E+02 -0.52621068295E+03  0.57670048431E+03  0.17300000000E+03 0. -1.
        6    1    1    2  502    0  0.13847214542E+03 -0.10968719585E+03  0.98028390168E+03  0.10109853332E+04  0.17300000000E+03 0.  1.
       -6    1    1    2    0  503 -0.11962362754E+03 -0.40126147379E+02  0.68083511418E+03  0.71371238792E+03  0.17300000000E+03 0.  1.
</event>
<event>
 6   0  0.4500850E-05  0.2482906E+03  0.7546771E-02  0.1116789E+00
       21   -1    0    0  501  503  0.00000000000E+00  0.00000000000E+00  0.38806661876E+03  0.38806661876E+03  0.00000000000E+00 0.  1.
       21   -1    0    0  502  504  0.00000000000E+00  0.00000000000E+00 -0.19463966135E+04  0.19463966135E+04  0.00000000000E+00 0. -1.
        6    1    1    2  501    0  0.23251118583E+03 -0.47111474388E+02 -0.14575186250E+04  0.14867987371E+04  0.17300000000E+03 0. -1.
       -6    1    1    2    0  504  0.19935121575E+02  0.91483112285E+02 -0.25114290449E+03  0.31901148471E+03  0.17300000000E+03 0.  1.
        6    1    1    2  502    0 -0.79538485030E+02 -0.94486469770E+02 -0.37974154937E+02  0.21592846041E+03  0.17300000000E+03 0. -1.
       -6    1    1    2    0  503 -0.17290782237E+03  0.50114831873E+02  0.18830568968E+03  0.31272455001E+03  0.17300000000E+03 0.  1.
</event>
<event>
 6   0  0.4500850E-05  0.4890182E+03  0.7546771E-02  0.1049061E+00
       21   -1    0    0  501  503  0.00000000000E+00  0.00000000000E+00  0.12257983546E+04  0.12257983546E+04  0.00000000000E+00 0.  1.
       21   -1    0    0  503  504  0.00000000000E+00  0.00000000000E+00 -0.34272405752E+03  0.34272405752E+03  0.00000000000E+00 0. -1.
        6    1    1    2  501    0 -0.60070355669E+02  0.42907937668E+02  0.54122752470E+03  0.57297973109E+03  0.17300000000E+03 0.  1.
       -6    1    1    2    0  502  0.12204772879E+03  0.27866525640E+03  0.35662322721E+03  0.49965898312E+03  0.17300000000E+03 0. -1.
        6    1    1    2  502    0 -0.68824151544E+02 -0.19728523552E+03 -0.60435132266E+02  0.27792019215E+03  0.17300000000E+03 0. -1.
       -6    1    1    2    0  504  0.68467784250E+01 -0.12428795854E+03  0.45658677415E+02  0.21796350575E+03  0.17300000000E+03 0. -1.
</event>
<event>
 6   0  0.4500850E-05  0.3860120E+03  0.7546771E-02  0.1050944E+00
       21   -1    0    0  501  503  0.00000000000E+00  0.00000000000E+00  0.14855989982E+04  0.14855989982E+04  0.00000000000E+00 0. -1.
       21   -1    0    0  502  504  0.00000000000E+00  0.00000000000E+00 -0.47467208756E+03  0.47467208756E+03  0.00000000000E+00 0.  1.
        6    1    1    2  501    0 -0.38420534369E+03  0.65534278327E+02  0.64032638484E+03  0.76932136775E+03  0.17300000000E+03 0. -1.
       -6    1    1    2    0  504  0.44119540159E+03  0.73307371164E+02  0.70871473253E+02  0.48474644792E+03  0.17300000000E+03 0.  1.
        6    1    1    2  502    0 -0.20253899495E+03  0.10277292305E+03  0.23330760713E+03  0.36870822846E+03  0.17300000000E+03 0. -1.
       -6    1    1    2    0  503  0.14554893704E+03 -0.24161457254E+03  0.66421445454E+02  0.33749504168E+03  0.17300000000E+03 0. -1.
</event>
<event>
 6   0  0.4500850E-05  0.3493787E+03  0.7546771E-02  0.1069271E+00
       21   -1    0    0  501  503  0.00000000000E+00  0.00000000000E+00  0.93969890903E+03  0.93969890903E+03  0.00000000000E+00 0.  1.
       21   -1    0    0  502  504  0.00000000000E+00  0.00000000000E+00 -0.87324086379E+03  0.87324086379E+03  0.00000000000E+00 0.  1.
        6    1    1    2  501    0 -0.49693774566E+02  0.47201353197E+03  0.11664945277E+03  0.51846151297E+03  0.17300000000E+03 0.  1.
       -6    1    1    2    0  503 -0.15037709685E+02  0.55677707568E+02  0.29928607730E+03  0.35046725367E+03  0.17300000000E+03 0. -1.
        6    1    1    2  502    0  0.18177344525E+03 -0.58237760560E+03 -0.15357945905E+03  0.65247291986E+03  0.17300000000E+03 0.  1.
       -6    1    1    2    0  504 -0.11704196100E+03  0.54686366062E+02 -0.19589802578E+03  0.29153808632E+03  0.17300000000E+03 0.  1.
</event>
<event>
 6   0  0.4500850E-05  0.3337055E+03  0.7546771E-02  0.1077166E+00
       21   -1    0    0  502  503  0.00000000000E+00  0.00000000000E+00  0.96657465390E+03  0.96657465390E+03  0.00000000000E+00 0.  1.
       21   -1    0    0  501  504  0.00000000000E+00  0.00000000000E+00 -0.11344028207E+04  0.11344028207E+04  0.00000000000E+00 0. -1.
        6    1    1    2  501    0  0.41768560523E+03  0.15927804241E+03  0.49275153525E+03  0.68743278588E+03  0.17300000000E+03 0.  1.
       -6    1    1    2    0  504 -0.20263896559E+02 -0.10318187343E+03 -0.58243365993E+03  0.61661583885E+03  0.17300000000E+03 0. -1.
        6    1    1    2  502    0 -0.28793327181E+03 -0.20913657672E+03 -0.26853010826E+03  0.47820612269E+03  0.17300000000E+03 0. -1.
       -6    1    1    2    0  503 -0.10948843687E+03  0.15304040773E+03  0.19038406612E+03  0.31872272721E+03  0.17300000000E+03 0. -1.
</event>
<event>
 6   0  0.4500850E-05  0.3203171E+03  0.7546771E-02  0.1094919E+00
       21   -1    0    0  502  503  0.00000000000E+00  0.00000000000E+00  0.63226263741E+03  0.63226263741E+03  0.00000000000E+00 0. -1.
       21   -1    0    0  501  504  0.00000000000E+00  0.00000000000E+00 -0.10126594290E+04  0.10126594290E+04  0.00000000000E+00 0. -1.
        6    1    1    2  501    0 -0.25569268119E+02 -0.28716774333E+03  0.45941714811E+03  0.56930854223E+03  0.17300000000E+03 0. -1.
       -6    1    1    2    0  503  0.49672201591E+02  0.10332879258E+03 -0.11379667597E+03  0.23669146679E+03  0.17300000000E+03 0. -1.
        6    1    1    2  502    0  0.57018619205E+02  0.56886578341E+02 -0.32019820462E+03  0.37275071559E+03  0.17300000000E+03 0.  1.
       -6    1    1    2    0  504 -0.81121552676E+02  0.12695237241E+03 -0.40581905910E+03  0.46617134178E+03  0.17300000000E+03 0. -1.
</event>
<event>
 6   0  0.4500850E-05  0.3120860E+03  0.7546771E-02  0.1101058E+00
       21   -1    0    0  501  503  0.00000000000E+00  0.00000000000E+00  0.41780973140E+03  0.41780973140E+03  0.00000000000E+00 0. -1.
       21   -1    0    0  502  504  0.00000000000E+00  0.00000000000E+00 -0.10966810430E+04  0.10966810430E+04  0.00000000000E+00 0.  1.
        6    1    1    2  501    0 -0.22100981175E+02 -0.22448306650E+02 -0.18237964038E+03  0.25334504745E+03  0.17300000000E+03 0.  1.
       -6    1    1    2    0  503 -0.18282178310E+03 -0.17332014594E+03  0.19736804038E+03  0.36379502570E+03  0.17300000000E+03 0. -1.
        6    1    1    2  502    0  0.29123445996E+03  0.14031863502E+03 -0.47602373099E+03  0.60086140038E+03  0.17300000000E+03 0.  1.
       -6    1    1    2    0  504 -0.86311695685E+02  0.55449817562E+02 -0.21783598063E+03  0.29648930088E+03  0.17300000000E+03 0. -1.
</event>
<event>
 6   0  0.4500850E-05  0.2493112E+03  0.7546771E-02  0.1125154E+00
       21   -1    0    0  501  503  0.00000000000E+00  0.00000000000E+00  0.53466403851E+03  0.53466403851E+03  0.00000000000E+00 0.  1.
       21   -1    0    0  502  504  0.00000000000E+00  0.00000000000E+00 -0.56076767833E+03  0.56076767833E+03  0.00000000000E+00 0. -1.
        6    1    1    2  501    0  0.55564912005E+02  0.45640396093E+02  0.20383043566E+03  0.27685077515E+03  0.17300000000E+03 0.  1.
       -6    1    1    2    0  504 -0.14915738256E+03  0.50679309125E+02 -0.18613064737E+03  0.29898149614E+03  0.17300000000E+03 0. -1.
        6    1    1    2  502    0  0.19481291437E+03 -0.15655887861E+03  0.77204781775E+01  0.30405815210E+03  0.17300000000E+03 0.  1.
       -6    1    1    2    0  503 -0.10122044382E+03  0.60239173391E+02 -0.51523906286E+02  0.21554129344E+03  0.17300000000E+03 0. -1.
</event>
<event>
 6   0  0.4500850E-05  0.3220547E+03  0.7546771E-02  0.1078510E+00
       21   -1    0    0  502  503  0.00000000000E+00  0.00000000000E+00  0.17106894384E+04  0.17106894384E+04  0.00000000000E+00 0. -1.
       21   -1    0    0  503  504  0.00000000000E+00  0.00000000000E+00 -0.43690727818E+03  0.43690727818E+03  0.00000000000E+00 0. -1.
        6    1    1    2  501    0 -0.18456512417E+03  0.75547970676E+02  0.66159442517E+02  0.27217246879E+03  0.17300000000E+03 0.  1.
       -6    1    1    2    0  501  0.10860366036E+03  0.10747486867E+03  0.95604784435E+03  0.98351516670E+03  0.17300000000E+03 0.  1.
        6    1    1    2  502    0  0.23201311629E+03  0.20185042757E+03  0.26584009063E+03  0.44178460252E+03  0.17300000000E+03 0. -1.
       -6    1    1    2    0  504 -0.15605165248E+03 -0.38487326691E+03 -0.14265217236E+02  0.45012447861E+03  0.17300000000E+03 0. -1.
</event>
<event>
 6   0  0.4500850E-05  0.3261580E+03  0.7546771E-02  0.1094608E+00
       21   -1    0    0  502  503  0.00000000000E+00  0.00000000000E+00  0.73124113682E+03  0.73124113682E+03  0.00000000000E+00 0. -1.
       21   -1    0    0  501  504  0.00000000000E+00  0.00000000000E+00 -0.52884654389E+03  0.52884654389E+03  0.00000000000E+00 0.  1.
        6    1    1    2  501    0  0.27841435548E+03  0.72932539300E+02  0.39874664214E+03  0.52130758027E+03  0.17300000000E+03 0. -1.
       -6    1    1    2    0  503 -0.89953217511E+02 -0.67463773534E+02  0.25235523935E+02  0.20786720219E+03  0.17300000000E+03 0.  1.
        6    1    1    2  502    0  0.51519422431E+02 -0.25046492237E+02 -0.52719740876E+02  0.18971017036E+03  0.17300000000E+03 0.  1.
       -6    1    1    2    0  504 -0.23998056040E+03  0.19577726471E+02 -0.16886783227E+03  0.34120272789E+03  0.17300000000E+03 0.  1.
</event>
<event>
 6   0  0.4500850E-05  0.2796103E+03  0.7546771E-02  0.1103275E+00
       21   -1    0    0  504  503  0.00000000000E+00  0.00000000000E+00  0.14394836860E+04  0.14394836860E+04  0.00000000000E+00 0. -1.
       21   -1    0    0  502  504  0.00000000000E+00  0.00000000000E+00 -0.49887367751E+03  0.49887367751E+03  0.00000000000E+00 0.  1.
        6    1    1    2  501    0  0.22865581922E+03 -0.21986722108E+03  0.95295529777E+03  0.10191554730E+04  0.17300000000E+03 0. -1.
       -6    1    1    2    0  501 -0.68312922745E+02  0.47991673661E+02 -0.23539756358E+03  0.30382703812E+03  0.17300000000E+03 0. -1.
        6    1    1    2  502    0 -0.23957845831E+03  0.40761776121E+02  0.60412876501E+01  0.29837033572E+03  0.17300000000E+03 0.  1.
       -6    1    1    2    0  503  0.79235561833E+02  0.13111377130E+03  0.21701098669E+03  0.31700451673E+03  0.17300000000E+03 0. -1.
</event>
<event>
 6   0  0.4500850E-05  0.2982929E+03  0.7546771E-02  0.1105381E+00
       21   -1    0    0  502  503  0.00000000000E+00  0.00000000000E+00  0.23874531687E+03  0.23874531687E+03  0.00000000000E+00 0. -1.
       21   -1    0    0  501  504  0.00000000000E+00  0.00000000000E+00 -0.15113475205E+04  0.15113475205E+04  0.00000000000E+00 0. -1.
        6    1    1    2  501    0 -0.14008774031E+03 -0.18769864458E+03 -0.89414000374E+03  0.94035668895E+03  0.17300000000E+03 0. -1.
       -6    1    1    2    0  504 -0.17344521202E+02 -0.85340222922E+02 -0.73828607566E+02  0.20727626338E+03  0.17300000000E+03 0.  1.
        6    1    1    2  502    0  0.16382629893E+01  0.50163949234E+02 -0.37836258754E+02  0.18406435881E+03  0.17300000000E+03 0.  1.
       -6    1    1    2    0  503  0.15579399852E+03  0.22287491827E+03 -0.26679733355E+03  0.41839552622E+03  0.17300000000E+03 0. -1.
</event>
<event>
 6   0  0.4500850E-05  0.2273574E+03  0.7546771E-02  0.1135262E+00
       21   -1    0    0  502  503  0.00000000000E+00  0.00000000000E+00  0.19645884718E+04  0.19645884718E+04  0.00000000000E+00 0.  1.
       21   -1    0    0  503  504  0.00000000000E+00  0.00000000000E+00 -0.37339969960E+03  0.37339969960E+03  0.00000000000E+00 0. -1.
        6    1    1    2  501    0 -0.12913766677E+03 -0.11135977657E+03  0.73992187950E+02  0.25393184262E+03  0.17300000000E+03 0. -1.
       -6    1    1    2    0  504  0.23233878059E+02 -0.21015264869E+02 -0.57577837806E+02  0.18500178878E+03  0.17300000000E+03 0. -1.
        6    1    1    2  502    0  0.14644273136E+03  0.23130164170E+03  0.16505557339E+04  0.16820253130E+04  0.17300000000E+03 0.  1.
       -6    1    1    2    0  501 -0.40538942649E+02 -0.98926600256E+02 -0.75781311876E+02  0.21702922692E+03  0.17300000000E+03 0.  1.
</event>
<event>
 6   0  0.4500850E-05  0.2091810E+03  0.7546771E-02  0.1144239E+00
       21   -1    0    0  504  503  0.00000000000E+00  0.00000000000E+00  0.38077276675E+03  0.38077276675E+03  0.00000000000E+00 0.  1.
       21   -1    0    0  502  504  0.00000000000E+00  0.00000000000E+00 -0.59191635701E+03  0.59191635701E+03  0.00000000000E+00 0.  1.
        6    1    1    2  501    0 -0.17046964357E+03  0.15088217062E+02  0.39873688392E+02  0.24658966868E+03  0.17300000000E+03 0.  1.
       -6    1    1    2    0  501  0.13202499514E+03  0.39235753833E+01 -0.54814361292E+02  0.22445402199E+03  0.17300000000E+03 0.  1.
        6    1    1    2  502    0  0.95891922004E+02 -0.68963380766E+02  0.24689450642E+02  0.21092600021E+03  0.17300000000E+03 0.  1.
       -6    1    1    2    0  503 -0.57447273574E+02  0.49951588321E+02 -0.22089236800E+03  0.29071943289E+03  0.17300000000E+03 0.  1.
</event>
<event>
 6   0  0.4500850E-05  0.4550379E+03  0.7546771E-02  0.1054628E+00
       21   -1    0    0  501  503  0.00000000000E+00  0.00000000000E+00  0.82943049039E+03  0.82943049039E+03  0.00000000000E+00 0.  1.
       21   -1    0    0  503  504  0.00000000000E+00  0.00000000000E+00 -0.55887373428E+03  0.55887373428E+03  0.00000000000E+00 0.  1.
        6    1    1    2  501    0 -0.34240813496E+02 -0.11945219129E+03  0.15638670856E+03  0.26424810676E+03  0.17300000000E+03 0. -1.
       -6    1    1    2    0  504  0.53010540667E+02 -0.83499416518E+02 -0.32857094333E+03  0.38427872017E+03  0.17300000000E+03 0.  1.
        6    1    1    2  502    0 -0.75841319442E+02  0.31500737518E+03  0.20756485227E+03  0.42189301968E+03  0.17300000000E+03 0.  1.
       -6    1    1    2    0  502  0.57071592271E+02 -0.11205576737E+03  0.23517613859E+03  0.31788437805E+03  0.17300000000E+03 0. -1.
</event>
<event>
 6   0  0.4500850E-05  0.2615922E+03  0.7546771E-02  0.1112902E+00
       21   -1    0    0  501  503  0.00000000000E+00  0.00000000000E+00  0.12565592906E+04  0.12565592906E+04  0.00000000000E+00 0.  1.
       21   -1    0    0  502  504  0.00000000000E+00  0.00000000000E+00 -0.23656972730E+03  0.23656972730E+03  0.00000000000E+00 0. -1.
        6    1    1    2  501    0 -0.10333781255E+03 -0.10966372307E+03  0.32562124210E+03  0.39832528035E+03  0.17300000000E+03 0.  1.
       -6    1    1    2    0  504 -0.12731474810E+03  0.89617481882E+02  0.24275927700E+03  0.33630552287E+03  0.17300000000E+03 0.  1.
        6    1    1    2  502    0 -0.10832291570E+03 -0.11433511111E+02  0.63611627902E+02  0.21410282214E+03  0.17300000000E+03 0. -1.
       -6    1    1    2    0  503  0.33897547636E+03  0.31479752303E+02  0.38799741630E+03  0.54439539255E+03  0.17300000000E+03 0.  1.
</event>
<event>
 6   0  0.4500850E-05  0.6519676E+03  0.7546771E-02  0.9803094E-01
       -1   -1    0    0    0  501  0.00000000000E+00  0.00000000000E+00  0.13227755926E+04  0.13227755926E+04  0.00000000000E+00 0. -1.
        1   -1    0    0  502    0  0.00000000000E+00  0.00000000000E+00 -0.66800477304E+03  0.66800477304E+03  0.00000000000E+00 0.  1.
        6    1    1    2  502    0  0.42044036652E+03  0.35893759196E+03 -0.74777148595E+02  0.58406071488E+03  0.17300000000E+03 0.  1.
       -6    1    1    2    0  501 -0.40742553685E+02 -0.29191790371E+03  0.13328710585E+02  0.34202729819E+03  0.17300000000E+03 0.  1.
        6    1    1    2  503    0 -0.33859315051E+03 -0.40805036649E+01  0.77820895841E+03  0.86614095564E+03  0.17300000000E+03 0. -1.
       -6    1    1    2    0  503 -0.41104662318E+02 -0.62939184587E+02 -0.61989700816E+02  0.19855139694E+03  0.17300000000E+03 0. -1.
</event>
<event>
 6   0  0.4500850E-05  0.3788972E+03  0.7546771E-02  0.1077122E+00
       21   -1    0    0  504  503  0.00000000000E+00  0.00000000000E+00  0.11000780086E+04  0.11000780086E+04  0.00000000000E+00 0. -1.
       21   -1    0    0  501  504  0.00000000000E+00  0.00000000000E+00 -0.11546086128E+04  0.11546086128E+04  0.00000000000E+00 0.  1.
        6    1    1    2  501    0 -0.51179224740E+02 -0.41920590167E+02 -0.61724837794E+03  0.64443867745E+03  0.17300000000E+03 0.  1.
       -6    1    1    2    0  503 -0.27237459935E+03  0.19203740928E+03  0.69690336599E+03  0.79162465251E+03  0.17300000000E+03 0.  1.
        6    1    1    2  502    0  0.40005380296E+03 -0.10711580547E+02  0.13963188485E+03  0.45780328361E+03  0.17300000000E+03 0. -1.
       -6    1    1    2    0  502 -0.76499978865E+02 -0.13940523856E+03 -0.27381747709E+03  0.36082000785E+03  0.17300000000E+03 0. -1.
</event>
<event>
 6   0  0.4500850E-05  0.3651543E+03  0.7546771E-02  0.1058274E+00
       21   -1    0    0  502  503  0.00000000000E+00  0.00000000000E+00  0.91299270379E+03  0.91299270379E+03  0.00000000000E+00 0. -1.
       21   -1    0    0  503  504  0.00000000000E+00  0.00000000000E+00 -0.15969893064E+04  0.15969893064E+04  0.00000000000E+00 0. -1.
        6    1    1    2  501    0  0.27429279805E+03  0.21387201040E+03  0.29947444260E+03  0.49050149609E+03  0.17300000000E+03 0. -1.
       -6    1    1    2    0  501 -0.60348781353E+02 -0.21346612686E+03 -0.11321540604E+04  0.11665811499E+04  0.17300000000E+03 0. -1.
        6    1    1    2  502    0  0.78080201393E+02  0.26938097024E+03  0.24267666705E+03  0.40924758974E+03  0.17300000000E+03 0.  1.
       -6    1    1    2    0  504 -0.29202421809E+03 -0.26978685378E+03 -0.93993651863E+02  0.44365177450E+03  0.17300000000E+03 0. -1.
</event>
<event>
 6   0  0.4500850E-05  0.3567642E+03  0.7546771E-02  0.1083706E+00
       21   -1    0    0  502  503  0.00000000000E+00  0.00000000000E+00  0.19099549322E+04  0.19099549322E+04  0.00000000000E+00 0.  1.
       21   -1    0    0  501  504  0.00000000000E+00  0.00000000000E+00 -0.28609548837E+03  0.28609548837E+03  0.00000000000E+00 0.  1.
        6    1    1    2  501    0  0.67132693736E+02 -0.10060787883E+02 -0.54260126471E+02  0.19360056649E+03  0.17300000000E+03 0.  1.
       -6    1    1    2    0  504 -0.68084012635E+02  0.35429659205E+03  0.56143740062E+03  0.68942183221E+03  0.17300000000E+03 0.  1.
        6    1    1    2  502    0 -0.11764174276E+03 -0.28413249972E+03  0.10105857806E+04  0.10704127601E+04  0.17300000000E+03 0. -1.
       -6    1    1    2    0  503  0.11859306165E+03 -0.60103304448E+02  0.10609638911E+03  0.24261526180E+03  0.17300000000E+03 0.  1.
</event>
<event>
 6   0  0.4500850E-05  0.3003777E+03  0.7546771E-02  0.1098211E+00
       21   -1    0    0  501  503  0.00000000000E+00  0.00000000000E+00  0.11253484691E+04  0.11253484691E+04  0.00000000000E+00 0.  1.
       21   -1    0    0  502  504  0.00000000000E+00  0.00000000000E+00 -0.65865603679E+03  0.65865603679E+03  0.00000000000E+00 0. -1.
        6    1    1    2  501    0  0.92314636932E+02  0.81486883897E+02  0.55845879449E+02  0.21956745362E+03  0.17300000000E+03 0. -1.
       -6    1    1    2    0  504  0.62184113993E+02 -0.11498532105E+03 -0.44700556775E+03  0.49682136195E+03  0.17300000000E+03 0. -1.
        6    1    1    2  502    0 -0.25798759202E+03  0.20324689073E+03  0.47550092018E+03  0.60323877638E+03  0.17300000000E+03 0.  1.
       -6    1    1    2    0  503  0.10348884110E+03 -0.16974845358E+03  0.38235120044E+03  0.46437691394E+03  0.17300000000E+03 0.  1.
</event>
<event>
 6   0  0.4500850E-05  0.2820170E+03  0.7546771E-02  0.1100396E+00
       21   -1    0    0  501  503  0.00000000000E+00  0.00000000000E+00  0.20135660058E+04  0.20135660058E+04  0.00000000000E+00 0.  1.
       21   -1    0    0  502  504  0.00000000000E+00  0.00000000000E+00 -0.32340569486E+03  0.32340569486E+03  0.00000000000E+00 0.  1.
        6    1    1    2  501    0 -0.15422636920E+03  0.81720280260E+01  0.11501492717E+04  0.11732965960E+04  0.17300000000E+03 0.  1.
       -6    1    1    2    0  504  0.16076364411E+03  0.31519325163E+03  0.39486721605E+03  0.55771036699E+03  0.17300000000E+03 0.  1.
        6    1    1    2  502    0  0.23964046066E+02 -0.86974986358E+02  0.22793121198E+03  0.30003426663E+03  0.17300000000E+03 0. -1.
       -6    1    1    2    0  503 -0.30501320975E+02 -0.23639029330E+03 -0.82787388816E+02  0.30593047101E+03  0.17300000000E+03 0.  1.
</event>
<event>
 6   0  0.4500850E-05  0.2704372E+03  0.7546771E-02  0.1113898E+00
       21   -1    0    0  501  503  0.00000000000E+00  0.00000000000E+00  0.50208016744E+03  0.50208016744E+03  0.00000000000E+00 0.  1.
       21   -1    0    0  502  504  0.00000000000E+00  0.00000000000E+00 -0.10682774515E+04  0.10682774515E+04  0.00000000000E+00 0. -1.
        6    1    1    2  501    0  0.82873516598E+02  0.56328712963E+02  0.61956463319E+02  0.20930491395E+03  0.17300000000E+03 0.  1.
       -6    1    1    2    0  504  0.77724409905E+02 -0.43383392312E+02  0.23447483195E+03  0.30468122594E+03  0.17300000000E+03 0.  1.
        6    1    1    2  502    0 -0.73821599277E+02  0.20241765522E+03 -0.61932077781E+03  0.67816647034E+03  0.17300000000E+03 0. -1.
       -6    1    1    2    0  503 -0.86776327225E+02 -0.21536297587E+03 -0.24330780156E+03  0.37820500875E+03  0.17300000000E+03 0. -1.
</event>
<event>
 6   0  0.4500850E-05  0.2615089E+03  0.7546771E-02  0.1120362E+00
       21   -1    0    0  504  503  0.00000000000E+00  0.00000000000E+00  0.13951149756E+03  0.13951149756E+03  0.00000000000E+00 0. -1.
       21   -1    0    0  502  504  0.00000000000E+00  0.00000000000E+00 -0.33284949741E+04  0.33284949741E+04  0.00000000000E+00 0. -1.
        6    1    1    2  501    0 -0.10148945616E+02 -0.12433807801E+03 -0.70445130696E+03  0.73603233802E+03  0.17300000000E+03 0.  1.
       -6    1    1    2    0  503 -0.51211478482E+02  0.29995327667E+02 -0.17614793560E+02  0.18374334318E+03  0.17300000000E+03 0. -1.
        6    1    1    2  502    0  0.22412031755E+03 -0.12297249578E+02 -0.60366412675E+03  0.66687368895E+03  0.17300000000E+03 0. -1.
       -6    1    1    2    0  501 -0.16275989346E+03  0.10663999992E+03 -0.18632532492E+04  0.18813571015E+04  0.17300000000E+03 0. -1.
</event>
<event>
 6   0  0.4500850E-05  0.2214640E+03  0.7546771E-02  0.1133422E+00
       21   -1    0    0  502  503  0.00000000000E+00  0.00000000000E+00  0.10601729220E+04  0.10601729220E+04  0.00000000000E+00 0.  1.
       21   -1    0    0  503  504  0.00000000000E+00  0.00000000000E+00 -0.11110471444E+04  0.11110471444E+04  0.00000000000E+00 0. -1.
        6    1    1    2  501    0  0.11185633571E+03  0.96838759826E+02  0.32631277338E+03  0.39786758013E+03  0.17300000000E+03 0.  1.
       -6    1    1    2    0  504 -0.20882634873E+03  0.77597270638E+02 -0.89758144976E+03  0.94085665183E+03  0.17300000000E+03 0. -1.
        6    1    1    2  502    0  0.66431358777E+02 -0.79822670273E+02  0.58812935481E+03  0.62177964111E+03  0.17300000000E+03 0.  1.
       -6    1    1    2    0  501  0.30538654243E+02 -0.94613360191E+02 -0.67734900798E+02  0.21071619329E+03  0.17300000000E+03 0. -1.
</event>
<event>
 6   0  0.4500850E-05  0.2158485E+03  0.7546771E-02  0.1141898E+00
       21   -1    0    0  502  503  0.00000000000E+00  0.00000000000E+00  0.14243000859E+04  0.14243000859E+04  0.00000000000E+00 0.  1.
       21   -1    0    0  501  504  0.00000000000E+00  0.00000000000E+00 -0.23829719363E+03  0.23829719363E+03  0.00000000000E+00 0. -1.
        6    1    1    2  501    0  0.28040570856E+02  0.78046701720E+02  0.69390734110E+01  0.19197581098E+03  0.17300000000E+03 0. -1.
       -6    1    1    2    0  504 -0.71651968685E+01 -0.13224652239E+03  0.81507485082E+02  0.23262190966E+03  0.17300000000E+03 0.  1.
        6    1    1    2  502    0 -0.12409649239E+03  0.55763462961E+02  0.98071919062E+03  0.10051112546E+04  0.17300000000E+03 0.  1.
       -6    1    1    2    0  503  0.10322111840E+03 -0.15636422878E+01  0.11683714315E+03  0.23288830430E+03  0.17300000000E+03 0.  1.
</event>
<event>
 6   0  0.4500850E-05  0.2775932E+03  0.7546771E-02  0.1103864E+00
       21   -1    0    0  501  503  0.00000000000E+00  0.00000000000E+00  0.10332409999E+04  0.10332409999E+04  0.00000000000E+00 0. -1.
       21   -1    0    0  502  504  0.00000000000E+00  0.00000000000E+00 -0.23608216527E+04  0.23608216527E+04  0.00000000000E+00 0. -1.
        6    1    1    2  501    0  0.90872546055E+02  0.11698222543E+03 -0.19897626825E+03  0.30242886109E+03  0.17300000000E+03 0.  1.
       -6    1    1    2    0  503  0.16029253559E+03 -0.13569190098E+03  0.63309290719E+03  0.68908752571E+03  0.17300000000E+03 0. -1.
        6    1    1    2  502    0 -0.44408915177E+02  0.30933842491E+03  0.19440894475E+03  0.40667708403E+03  0.17300000000E+03 0.  1.
       -6    1    1    2    0  504 -0.20675616647E+03 -0.29062874936E+03 -0.19561062365E+04  0.19958691818E+04  0.17300000000E+03 0. -1.
</event>
<event>
 6   0  0.4500850E-05  0.2707120E+03  0.7546771E-02  0.1109097E+00
       21   -1    0    0  501  503  0.00000000000E+00  0.00000000000E+00  0.11789315278E+04  0.11789315278E+04  0.00000000000E+00 0.  1.
       21   -1    0    0  502  504  0.00000000000E+00  0.00000000000E+00 -0.54375019145E+03  0.54375019145E+03  0.00000000000E+00 0.  1.
        6    1    1    2  501    0  0.13231854560E+03 -0.24015301270E+02  0.52384784343E+03  0.56782963578E+03  0.17300000000E+03 0.  1.
       -6    1    1    2    0  503 -0.16430796602E+03 -0.19212393823E+03 -0.17108846092E+03  0.35086888833E+03  0.17300000000E+03 0. -1.
        6    1    1    2  502    0  0.20880297527E+03 -0.88035539005E+01 -0.10617965384E+03  0.29134052916E+03  0.17300000000E+03 0.  1.
       -6    1    1    2    0  504 -0.17681355485E+03  0.22494279340E+03  0.38860160765E+03  0.51264266595E+03  0.17300000000E+03 0.  1.
</event>
<event>
 6   0  0.4500850E-05  0.2288633E+03  0.7546771E-02  0.1134013E+00
       21   -1    0    0  502  503  0.00000000000E+00  0.00000000000E+00  0.15527047942E+04  0.15527047942E+04  0.00000000000E+00 0.  1.
       21   -1    0    0  501  504  0.00000000000E+00  0.00000000000E+00 -0.43411017563E+03  0.43411017563E+03  0.00000000000E+00 0. -1.
        6    1    1    2  501    0  0.67504760716E+02  0.90974408250E+02 -0.17286047219E+03  0.26952361404E+03  0.17300000000E+03 0. -1.
       -6    1    1    2    0  504 -0.88890958650E+02 -0.10735003226E+02  0.31812402900E+02  0.19737748555E+03  0.17300000000E+03 0.  1.
        6    1    1    2  502    0 -0.11273018345E+03  0.90352946139E+02  0.12187262128E+04  0.12393927267E+04  0.17300000000E+03 0.  1.
       -6    1    1    2    0  503  0.13411638138E+03 -0.17059235116E+03  0.40916474997E+02  0.28052114351E+03  0.17300000000E+03 0.  1.
</event>
<event>
 6   0  0.4500850E-05  0.5914005E+03  0.7546771E-02  0.1002945E+00
        1   -1    0    0  502    0  0.00000000000E+00  0.00000000000E+00  0.31762243880E+04  0.31762243880E+04  0.00000000000E+00 0. -1.
       -1   -1    0    0    0  501  0.00000000000E+00  0.00000000000E+00 -0.11294507285E+03  0.11294507285E+03  0.00000000000E+00 0.  1.
        6    1    1    2  502    0  0.16947840169E+03  0.22527704423E+03  0.15876017187E+04  0.16216907512E+04  0.17300000000E+03 0. -1.
       -6    1    1    2    0  501 -0.39968308329E+02 -0.11240123513E+03  0.22470295238E+03  0.30765552187E+03  0.17300000000E+03 0.  1.
        6    1    1    2  503    0  0.60938632719E+02 -0.10645292943E+03  0.25768467667E+03  0.33373063350E+03  0.17300000000E+03 0. -1.
       -6    1    1    2    0  503 -0.19044872608E+03 -0.64228796709E+01  0.99328996734E+03  0.10260925542E+04  0.17300000000E+03 0.  1.
</event>
<event>
 6   0  0.4500850E-05  0.3925395E+03  0.7546771E-02  0.1046394E+00
        2   -1    0    0  503    0  0.00000000000E+00  0.00000000000E+00  0.53635908820E+03  0.53635908820E+03  0.00000000000E+00 0. -1.
       -2   -1    0    0    0  501  0.00000000000E+00  0.00000000000E+00 -0.35182360135E+03  0.35182360135E+03  0.00000000000E+00 0.  1.
        6    1    1    2  502    0 -0.54247626536E+02 -0.88814638053E+01 -0.50644908881E+02  0.18845580962E+03  0.17300000000E+03 0.  1.
       -6    1    1    2    0  501  0.13646289307E+03  0.14032608008E+03  0.14068899212E+03  0.29670848056E+03  0.17300000000E+03 0. -1.
        6    1    1    2  503    0 -0.43119650839E+01 -0.66364019034E+02  0.10740642330E+02  0.18565327216E+03  0.17300000000E+03 0.  1.
       -6    1    1    2    0  502 -0.77903301449E+02 -0.65080597236E+02  0.83750761288E+02  0.21736512722E+03  0.17300000000E+03 0.  1.
</event>
<event>
 6   0  0.4500850E-05  0.8340301E+03  0.7546771E-02  0.9536723E-01
       21   -1    0    0  502  503  0.00000000000E+00  0.00000000000E+00  0.30365261352E+03  0.30365261352E+03  0.00000000000E+00 0.  1.
       21   -1    0    0  501  504  0.00000000000E+00  0.00000000000E+00 -0.22881150290E+04  0.22881150290E+04  0.00000000000E+00 0.  1.
        6    1    1    2  501    0  0.18527931609E+03 -0.23700855262E+03 -0.28975844198E+03  0.45209560237E+03  0.17300000000E+03 0.  1.
       -6    1    1    2    0  503  0.23948319628E+03 -0.29489603716E+03 -0.29793935103E+03  0.51284766834E+03  0.17300000000E+03 0.  1.
        6    1    1    2  502    0 -0.42968161798E+03  0.38818448079E+03 -0.93736843454E+03  0.11153035757E+04  0.17300000000E+03 0.  1.
       -6    1    1    2    0  504  0.49191056093E+01  0.14372010899E+03 -0.45939618793E+03  0.51152079607E+03  0.17300000000E+03 0.  1.
</event>
<event>
 6   0  0.4500850E-05  0.3750321E+03  0.7546771E-02  0.1052812E+00
       21   -1    0    0  501  503  0.00000000000E+00  0.00000000000E+00  0.17802280706E+04  0.17802280706E+04  0.00000000000E+00 0. -1.
       21   -1    0    0  502  504  0.00000000000E+00  0.00000000000E+00 -0.89315551392E+03  0.89315551392E+03  0.00000000000E+00 0.  1.
        6    1    1    2  501    0 -0.37845766786E+03  0.11894062972E+03  0.10907980266E+04  0.11735188174E+04  0.17300000000E+03 0. -1.
       -6    1    1    2    0  504 -0.19336999595E+03 -0.15727192634E+03  0.36237947100E+03  0.47262489900E+03  0.17300000000E+03 0.  1.
        6    1    1    2  502    0  0.21940225617E+03 -0.60887473009E+02 -0.55244540538E+03  0.62206877458E+03  0.17300000000E+03 0. -1.
       -6    1    1    2    0  503  0.35242540764E+03  0.99218769635E+02 -0.13659535549E+02  0.40517109362E+03  0.17300000000E+03 0.  1.
</event>
<event>
 6   0  0.4500850E-05  0.3789094E+03  0.7546771E-02  0.1051338E+00
        2   -1    0    0  503    0  0.00000000000E+00  0.00000000000E+00  0.13131973962E+04  0.13131973962E+04  0.00000000000E+00 0. -1.
       -2   -1    0    0    0  501  0.00000000000E+00  0.00000000000E+00 -0.18181624261E+03  0.18181624261E+03  0.00000000000E+00 0.  1.
        6    1    1    2  502    0 -0.55465771507E+02  0.90155983049E+02  0.45517062354E+03  0.49831099689E+03  0.17300000000E+03 0.  1.
       -6    1    1    2    0  502  0.11758628023E+03 -0.40102869929E+02  0.48968591886E+03  0.53400006798E+03  0.17300000000E+03 0. -1.
        6    1    1    2  503    0 -0.10967086180E+02 -0.12810736560E+03  0.44230967613E+02  0.22003897972E+03  0.17300000000E+03 0.  1.
       -6    1    1    2    0  501 -0.51153422539E+02  0.78054252479E+02  0.14229364362E+03  0.24266359426E+03  0.17300000000E+03 0.  1.
</event>
<event>
 6   0  0.4500850E-05  0.2752282E+03  0.7546771E-02  0.1098609E+00
       21   -1    0    0  501  503  0.00000000000E+00  0.00000000000E+00  0.25518408063E+03  0.25518408063E+03  0.00000000000E+00 0. -1.
       21   -1    0    0  503  504  0.00000000000E+00  0.00000000000E+00 -0.21935066478E+04  0.21935066478E+04  0.00000000000E+00 0.  1.
        6    1    1    2  501    0 -0.85669593502E+01 -0.18162925921E+03 -0.14042314819E+03  0.28759388231E+03  0.17300000000E+03 0.  1.
       -6    1    1    2    0  504 -0.30274353700E+02  0.15143920707E+03 -0.89282648961E+03  0.92245244347E+03  0.17300000000E+03 0.  1.
        6    1    1    2  502    0  0.11453203238E+03 -0.31147615315E+03 -0.70918359184E+03  0.80187614216E+03  0.17300000000E+03 0.  1.
       -6    1    1    2    0  502 -0.75690719332E+02  0.34166620529E+03 -0.19588933755E+03  0.43676826052E+03  0.17300000000E+03 0. -1.
</event>
<event>
 6   0  0.4500850E-05  0.3505551E+03  0.7546771E-02  0.1063779E+00
       21   -1    0    0  504  503  0.00000000000E+00  0.00000000000E+00  0.38135901530E+03  0.38135901530E+03  0.00000000000E+00 0. -1.
       21   -1    0    0  502  504  0.00000000000E+00  0.00000000000E+00 -0.20607288134E+04  0.20607288134E+04  0.00000000000E+00 0. -1.
        6    1    1    2  501    0 -0.15599036186E+02  0.34342837460E+01 -0.92356224416E+02  0.19675821818E+03  0.17300000000E+03 0. -1.
       -6    1    1    2    0  501  0.11149323398E+03  0.12195956374E+03 -0.14244600178E+03  0.27843264865E+03  0.17300000000E+03 0. -1.
        6    1    1    2  502    0  0.73055997141E+02 -0.16515686033E+03 -0.16365767290E+04  0.16555743285E+04  0.17300000000E+03 0. -1.
       -6    1    1    2    0  503 -0.16895019493E+03  0.39763012839E+02  0.19200915718E+03  0.31132263329E+03  0.17300000000E+03 0. -1.
</event>
<event>
 6   0  0.4500850E-05  0.2680781E+03  0.7546771E-02  0.1105603E+00
       21   -1    0    0  504  503  0.00000000000E+00  0.00000000000E+00  0.74097620086E+03  0.74097620086E+03  0.00000000000E+00 0. -1.
       21   -1    0    0  502  504  0.00000000000E+00  0.00000000000E+00 -0.57933173500E+03  0.57933173500E+03  0.00000000000E+00 0.  1.
        6    1    1    2  501    0  0.58799869802E+02 -0.13818609303E+03  0.10981951063E+03  0.25405146311E+03  0.17300000000E+03 0.  1.
       -6    1    1    2    0  503 -0.23177676917E+03  0.19480768823E+03  0.22573203426E+03  0.41539674699E+03  0.17300000000E+03 0. -1.
        6    1    1    2  502    0 -0.10819124002E+03 -0.70387365689E+02 -0.23033320473E+03  0.31566138641E+03  0.17300000000E+03 0.  1.
       -6    1    1    2    0  501  0.28116813939E+03  0.13765770492E+02  0.56426125705E+02  0.33519833936E+03  0.17300000000E+03 0.  1.
</event>
<event>
 6   0  0.4500850E-05  0.5194687E+03  0.7546771E-02  0.1033425E+00
       21   -1    0    0  501  503  0.00000000000E+00  0.00000000000E+00  0.54514508765E+03  0.54514508765E+03  0.00000000000E+00 0. -1.
       21   -1    0    0  503  504  0.00000000000E+00  0.00000000000E+00 -0.94227965665E+03  0.94227965665E+03  0.00000000000E+00 0. -1.
        6    1    1    2  501    0  0.13294853325E+03  0.21327728769E+02  0.91553250464E+01  0.21941514188E+03  0.17300000000E+03 0.  1.
       -6    1    1    2    0  502 -0.26014791210E+03 -0.18047599087E+03  0.10444095910E+03  0.37561340949E+03  0.17300000000E+03 0. -1.
        6    1    1    2  502    0 -0.17897599513E+03 -0.10180555706E+03 -0.86020402886E+02  0.28235666805E+03  0.17300000000E+03 0.  1.
       -6    1    1    2    0  504  0.30617537398E+03  0.26095381916E+03 -0.42471045026E+03  0.61003952489E+03  0.17300000000E+03 0. -1.
</event>
<event>
 6   0  0.4500850E-05  0.2240679E+03  0.7546771E-02  0.1138213E+00
       21   -1    0    0  504  503  0.00000000000E+00  0.00000000000E+00  0.44783210495E+03  0.44783210495E+03  0.00000000000E+00 0.  1.
       21   -1    0    0  501  504  0.00000000000E+00  0.00000000000E+00 -0.64624793368E+03  0.64624793368E+03  0.00000000000E+00 0.  1.
        6    1    1    2  501    0 -0.43985227530E+02 -0.11640117509E+03 -0.62069981780E+02  0.22195859173E+03  0.17300000000E+03 0. -1.
       -6    1    1    2    0  503 -0.25403804534E+02  0.27846307229E+01  0.14520065082E+01  0.17488343482E+03  0.17300000000E+03 0.  1.
        6    1    1    2  502    0 -0.93543246538E+01  0.20286474818E+03  0.17604189745E+03  0.31962690610E+03  0.17300000000E+03 0.  1.
       -6    1    1    2    0  502  0.78743356718E+02 -0.89248203816E+02 -0.31383975090E+03  0.37761110598E+03  0.17300000000E+03 0.  1.
</event>
<event>
 6   0  0.4500850E-05  0.2291282E+03  0.7546771E-02  0.1130201E+00
       21   -1    0    0  502  503  0.00000000000E+00  0.00000000000E+00  0.18042999920E+04  0.18042999920E+04  0.00000000000E+00 0.  1.
       21   -1    0    0  503  504  0.00000000000E+00  0.00000000000E+00 -0.21372519496E+03  0.21372519496E+03  0.00000000000E+00 0. -1.
        6    1    1    2  501    0 -0.16001281384E+03 -0.55788809962E+02  0.23077839082E+03  0.33452078796E+03  0.17300000000E+03 0. -1.
       -6    1    1    2    0  504  0.14361261844E+03 -0.56061779253E+02  0.11456038608E+01  0.23172790008E+03  0.17300000000E+03 0.  1.
        6    1    1    2  502    0 -0.11915665880E+03 -0.35827496173E+02  0.35743105607E+03  0.41613444782E+03  0.17300000000E+03 0. -1.
       -6    1    1    2    0  501  0.13555685420E+03  0.14767808539E+03  0.10012197463E+04  0.10356420511E+04  0.17300000000E+03 0.  1.
</event>
<event>
 6   0  0.4500850E-05  0.3786035E+03  0.7546771E-02  0.1076257E+00
       21   -1    0    0  502  503  0.00000000000E+00  0.00000000000E+00  0.12986941226E+04  0.12986941226E+04  0.00000000000E+00 0.  1.
       21   -1    0    0  501  504  0.00000000000E+00  0.00000000000E+00 -0.33673141928E+03  0.33673141928E+03  0.00000000000E+00 0. -1.
        6    1    1    2  501    0  0.39613178530E+02  0.36624823944E+03  0.40968386038E+03  0.57747453820E+03  0.17300000000E+03 0. -1.
       -6    1    1    2    0  504 -0.56606270403E+02 -0.11663756514E+03 -0.48562196735E+02  0.22157589761E+03  0.17300000000E+03 0. -1.
        6    1    1    2  502    0  0.44968352380E+02  0.64573125328E+02  0.86768283133E+02  0.20892480989E+03  0.17300000000E+03 0.  1.
       -6    1    1    2    0  503 -0.27975260507E+02 -0.31418379963E+03  0.51407275653E+03  0.62745029616E+03  0.17300000000E+03 0.  1.
</event>
<event>
 6   0  0.4500850E-05  0.2058203E+03  0.7546771E-02  0.1151828E+00
       21   -1    0    0  502  503  0.00000000000E+00  0.00000000000E+00  0.78215425950E+03  0.78215425950E+03  0.00000000000E+00 0. -1.
       21   -1    0    0  501  504  0.00000000000E+00  0.00000000000E+00 -0.40960930260E+03  0.40960930260E+03  0.00000000000E+00 0. -1.
        6    1    1    2  501    0  0.14900737649E+02 -0.64298228141E+02  0.79287407816E+02  0.20142439565E+03  0.17300000000E+03 0. -1.
       -6    1    1    2    0  504 -0.13151344338E+02  0.20099577671E+02 -0.17186036817E+03  0.24503456293E+03  0.17300000000E+03 0. -1.
        6    1    1    2  502    0 -0.10920326756E+03  0.66516980114E+02 -0.22594515337E+02  0.21630851673E+03  0.17300000000E+03 0. -1.
       -6    1    1    2    0  503  0.10745387425E+03 -0.22318329644E+02  0.48771243259E+03  0.52899608678E+03  0.17300000000E+03 0.  1.
</event>
<event>
 6   0  0.4500850E-05  0.4042403E+03  0.7546771E-02  0.1042321E+00
        2   -1    0    0  503    0  0.00000000000E+00  0.00000000000E+00  0.13037902603E+03  0.13037902603E+03  0.00000000000E+00 0. -1.
       -2   -1    0    0    0  501  0.00000000000E+00  0.00000000000E+00 -0.12820285678E+04  0.12820285678E+04  0.00000000000E+00 0.  1.
        6    1    1    2  502    0 -0.31773153716E+02  0.91315520585E+02 -0.23499666881E+03  0.30740932313E+03  0.17300000000E+03 0. -1.
       -6    1    1    2    0  502  0.21461476365E+02  0.11092533011E+02 -0.40029792358E+03  0.43675057742E+03  0.17300000000E+03 0.  1.
        6    1    1    2  503    0  0.98571322700E+02 -0.11343737870E+03 -0.29540384934E+03  0.37386732774E+03  0.17300000000E+03 0.  1.
       -6    1    1    2    0  501 -0.88259645350E+02  0.11029325102E+02 -0.22095110006E+03  0.29438036556E+03  0.17300000000E+03 0. -1.
</event>
<event>
 6   0  0.4500850E-05  0.2727730E+03  0.7546771E-02  0.1102342E+00
       21   -1    0    0  501  503  0.00000000000E+00  0.00000000000E+00  0.23534113994E+04  0.23534113994E+04  0.00000000000E+00 0.  1.
       21   -1    0    0  502  504  0.00000000000E+00  0.00000000000E+00 -0.26736933100E+03  0.26736933100E+03  0.00000000000E+00 0.  1.
        6    1    1    2  501    0 -0.12672789838E+03  0.14857324202E+03  0.14798479415E+04  0.15026685923E+04  0.17300000000E+03 0.  1.
       -6    1    1    2    0  503  0.15352416503E+03 -0.61857090492E+02  0.37295711729E+03  0.44319519427E+03  0.17300000000E+03 0. -1.
        6    1    1    2  502    0  0.13073001496E+03 -0.10331096366E+03 -0.10595266723E+03  0.26252325557E+03  0.17300000000E+03 0.  1.
       -6    1    1    2    0  504 -0.15752628161E+03  0.16594812129E+02  0.33918967683E+03  0.41239368818E+03  0.17300000000E+03 0. -1.
</event>
<event>
 6   0  0.4500850E-05  0.2348714E+03  0.7546771E-02  0.1133582E+00
       21   -1    0    0  501  503  0.00000000000E+00  0.00000000000E+00  0.16043073685E+04  0.16043073685E+04  0.00000000000E+00 0.  1.
       21   -1    0    0  503  504  0.00000000000E+00  0.00000000000E+00 -0.36346524034E+03  0.36346524034E+03  0.00000000000E+00 0. -1.
        6    1    1    2  501    0  0.10639504524E+02  0.85465432888E+01  0.10126479320E+04  0.10274098874E+04  0.17300000000E+03 0.  1.
       -6    1    1    2    0  502  0.46055559017E+02 -0.13525484530E+03  0.13569443550E+02  0.22478460244E+03  0.17300000000E+03 0.  1.
        6    1    1    2  502    0  0.14509268982E+03 -0.54348062464E+02  0.30327320619E+03  0.38198067769E+03  0.17300000000E+03 0.  1.
       -6    1    1    2    0  504 -0.20178775336E+03  0.18105636448E+03 -0.88648453632E+02  0.33359744132E+03  0.17300000000E+03 0. -1.
</event>
<event>
 6   0  0.4500850E-05  0.1925003E+03  0.7546771E-02  0.1157298E+00
       21   -1    0    0  504  503  0.00000000000E+00  0.00000000000E+00  0.81373083947E+03  0.81373083947E+03  0.00000000000E+00 0.  1.
       21   -1    0    0  501  504  0.00000000000E+00  0.00000000000E+00 -0.36452395256E+03  0.36452395256E+03  0.00000000000E+00 0.  1.
        6    1    1    2  501    0 -0.37093802649E+02 -0.95634521030E+02 -0.79153250588E+02  0.21613918869E+03  0.17300000000E+03 0. -1.
       -6    1    1    2    0  502  0.32703762879E+02  0.65139106441E+02 -0.10838149388E+03  0.21676758870E+03  0.17300000000E+03 0.  1.
        6    1    1    2  502    0 -0.82170180192E+02  0.77927554408E+01  0.34227960313E+03  0.39229707145E+03  0.17300000000E+03 0. -1.
       -6    1    1    2    0  503  0.86560219962E+02  0.22702659148E+02  0.29446202824E+03  0.35305094319E+03  0.17300000000E+03 0.  1.
</event>
<event>
 6   0  0.4500850E-05  0.2391693E+03  0.7546771E-02  0.1125607E+00
       21   -1    0    0  502  503  0.00000000000E+00  0.00000000000E+00  0.18284034186E+04  0.18284034186E+04  0.00000000000E+00 0. -1.
       21   -1    0    0  501  504  0.00000000000E+00  0.00000000000E+00 -0.24259570963E+03  0.24259570963E+03  0.00000000000E+00 0.  1.
        6    1    1    2  501    0 -0.17856928758E+03  0.47976789277E+02  0.27483249549E+02  0.25470196658E+03  0.17300000000E+03 0.  1.
       -6    1    1    2    0  503 -0.19382959694E+02  0.10144961846E+03  0.10532672200E+02  0.20176139719E+03  0.17300000000E+03 0.  1.
        6    1    1    2  502    0  0.18739458819E+03 -0.12080066338E+03  0.10171293445E+04  0.10555522893E+04  0.17300000000E+03 0. -1.
       -6    1    1    2    0  504  0.10557659083E+02 -0.28625744360E+02  0.53066244274E+03  0.55898347520E+03  0.17300000000E+03 0. -1.
</event>
<event>
 6   0  0.4500850E-05  0.1306611E+04  0.7546771E-02  0.9024339E-01
        2   -1    0    0  502    0  0.00000000000E+00  0.00000000000E+00  0.33596214719E+04  0.33596214719E+04  0.00000000000E+00 0.  1.
       -2   -1    0    0    0  501  0.00000000000E+00  0.00000000000E+00 -0.60083228769E+03  0.60083228769E+03  0.00000000000E+00 0. -1.
        6    1    1    2  502    0  0.10932273219E+04 -0.15970567102E+03  0.19111254608E+04  0.22142676906E+04  0.17300000000E+03 0.  1.
       -6    1    1    2    0  503 -0.34043097449E+03 -0.27283647962E+03  0.24929814221E+03  0.53142408368E+03  0.17300000000E+03 0.  1.
        6    1    1    2  503    0 -0.51147695683E+03  0.51698481310E+03  0.40004726900E+03  0.84784951010E+03  0.17300000000E+03 0. -1.
       -6    1    1    2    0  501 -0.24131939058E+03 -0.84442662463E+02  0.19831831221E+03  0.36691247522E+03  0.17300000000E+03 0. -1.
</event>
<event>
 6   0  0.4500850E-05  0.3805492E+03  0.7546771E-02  0.1051008E+00
       21   -1    0    0  501  503  0.00000000000E+00  0.00000000000E+00  0.12000347664E+04  0.12000347664E+04  0.00000000000E+00 0. -1.
       21   -1    0    0  502  504  0.00000000000E+00  0.00000000000E+00 -0.15565131298E+04  0.15565131298E+04  0.00000000000E+00 0. -1.
        6    1    1    2  501    0 -0.22275339803E+03  0.18569976755E+03 -0.97532841477E+03  0.10321327418E+04  0.17300000000E+03 0. -1.
       -6    1    1    2    0  504 -0.34696113904E+02 -0.24307302479E+03 -0.13273647836E+03  0.32838436076E+03  0.17300000000E+03 0.  1.
        6    1    1    2  502    0  0.47456768969E+03 -0.33921615422E+02  0.92625051572E+03  0.10555729184E+04  0.17300000000E+03 0. -1.
       -6    1    1    2    0  503 -0.21711817775E+03  0.91294872662E+02 -0.17466398602E+03  0.34045787536E+03  0.17300000000E+03 0. -1.
</event>
<event>
 6   0  0.4500850E-05  0.2128934E+03  0.7546771E-02  0.1139671E+00
       21   -1    0    0  501  503  0.00000000000E+00  0.00000000000E+00  0.66881920975E+03  0.66881920975E+03  0.00000000000E+00 0.  1.
       21   -1    0    0  503  504  0.00000000000E+00  0.00000000000E+00 -0.43472868978E+03  0.43472868978E+03  0.00000000000E+00 0.  1.
        6    1    1    2  501    0  0.12204562454E+03  0.15222130922E+03  0.31286334577E+03  0.40728237696E+03  0.17300000000E+03 0.  1.
       -6    1    1    2    0  502  0.57701009494E+01  0.36448933856E+02  0.88183125837E+01  0.17711177680E+03  0.17300000000E+03 0.  1.
        6    1    1    2  502    0  0.16341189983E+02 -0.46302057682E+02  0.87864011942E+02  0.20014994287E+03  0.17300000000E+03 0. -1.
       -6    1    1    2    0  504 -0.14415691547E+03 -0.14236818539E+03 -0.17545515034E+03  0.31900380291E+03  0.17300000000E+03 0.  1.
</event>
<event>
 6   0  0.4500850E-05  0.2875119E+03  0.7546771E-02  0.1095216E+00
       21   -1    0    0  501  503  0.00000000000E+00  0.00000000000E+00  0.18793358592E+04  0.18793358592E+04  0.00000000000E+00 0. -1.
       21   -1    0    0  502  504  0.00000000000E+00  0.00000000000E+00 -0.27304037912E+03  0.27304037912E+03  0.00000000000E+00 0. -1.
        6    1    1    2  501    0  0.71467542013E+02  0.15144069544E+03  0.12993920685E+03  0.27359658491E+03  0.17300000000E+03 0.  1.
       -6    1    1    2    0  503  0.25227905518E+03 -0.23651749895E+03  0.67849261113E+03  0.78093948059E+03  0.17300000000E+03 0.  1.
        6    1    1    2  502    0 -0.88051637580E+02 -0.11026213877E+03 -0.29104879456E+01  0.22326733094E+03  0.17300000000E+03 0. -1.
       -6    1    1    2    0  504 -0.23569495962E+03  0.19533894227E+03  0.80077415003E+03  0.87457284185E+03  0.17300000000E+03 0. -1.
</event>
<event>
 6   0  0.4500850E-05  0.2724169E+03  0.7546771E-02  0.1116285E+00
       21   -1    0    0  504  503  0.00000000000E+00  0.00000000000E+00  0.83252746744E+03  0.83252746744E+03  0.00000000000E+00 0.  1.
       21   -1    0    0  502  504  0.00000000000E+00  0.00000000000E+00 -0.10371169568E+04  0.10371169568E+04  0.00000000000E+00 0.  1.
        6    1    1    2  501    0  0.23175481436E+02  0.73814702206E+02  0.56135884502E+03  0.59248499228E+03  0.17300000000E+03 0.  1.
       -6    1    1    2    0  501  0.21426747602E+03 -0.50231896870E+02 -0.40354723412E+03  0.49113456904E+03  0.17300000000E+03 0.  1.
        6    1    1    2  502    0 -0.20431655058E+03  0.94802865689E+01 -0.49516628255E+03  0.56298647946E+03  0.17300000000E+03 0.  1.
       -6    1    1    2    0  503 -0.33126406878E+02 -0.33063091905E+02  0.13276518228E+03  0.22303838348E+03  0.17300000000E+03 0. -1.
</event>
<event>
 6   0  0.4500850E-05  0.4317639E+03  0.7546771E-02  0.1038701E+00
       21   -1    0    0  504  503  0.00000000000E+00  0.00000000000E+00  0.11701086046E+04  0.11701086046E+04  0.00000000000E+00 0. -1.
       21   -1    0    0  502  504  0.00000000000E+00  0.00000000000E+00 -0.14928851718E+04  0.14928851718E+04  0.00000000000E+00 0. -1.
        6    1    1    2  501    0 -0.10717168900E+03  0.35660065666E+03 -0.28117607114E+02  0.41154513614E+03  0.17300000000E+03 0.  1.
       -6    1    1    2    0  501 -0.26183078417E+03  0.25421324754E+03 -0.54048716235E+03  0.67471112888E+03  0.17300000000E+03 0.  1.
        6    1    1    2  502    0  0.32749448273E+03 -0.28803144019E+03 -0.53602561292E+03  0.71236732411E+03  0.17300000000E+03 0. -1.
       -6    1    1    2    0  503  0.41507990437E+02 -0.32278246401E+03  0.78185381514E+03  0.86437018724E+03  0.17300000000E+03 0. -1.
</event>
<event>
 6   0  0.4500850E-05  0.2200488E+03  0.7546771E-02  0.1135931E+00
       21   -1    0    0  502  503  0.00000000000E+00  0.00000000000E+00  0.93958373261E+03  0.93958373261E+03  0.00000000000E+00 0. -1.
       21   -1    0    0  501  504  0.00000000000E+00  0.00000000000E+00 -0.49706106671E+03  0.49706106671E+03  0.00000000000E+00 0.  1.
        6    1    1    2  501    0 -0.58947334165E+02 -0.86732276458E+02 -0.30847927440E+03  0.36889800585E+03  0.17300000000E+03 0.  1.
       -6    1    1    2    0  504  0.74004309351E+02  0.17193379726E+02  0.15913262188E+03  0.24703125603E+03  0.17300000000E+03 0. -1.
        6    1    1    2  502    0  0.91658113485E+02  0.93208613989E+02  0.57599892067E+03  0.61546146272E+03  0.17300000000E+03 0. -1.
       -6    1    1    2    0  503 -0.10671508867E+03 -0.23669717256E+02  0.15870397755E+02  0.20525407472E+03  0.17300000000E+03 0.  1.
</event>
<event>
 6   0  0.4500850E-05  0.3081911E+03  0.7546771E-02  0.1091294E+00
       21   -1    0    0  502  503  0.00000000000E+00  0.00000000000E+00  0.67051477706E+03  0.67051477706E+03  0.00000000000E+00 0. -1.
       21   -1    0    0  503  504  0.00000000000E+00  0.00000000000E+00 -0.83705479509E+03  0.83705479509E+03  0.00000000000E+00 0.  1.
        6    1    1    2  501    0  0.35139554044E+02  0.12019642741E+03 -0.29034374815E+03  0.36043093862E+03  0.17300000000E+03 0.  1.
       -6    1    1    2    0  501 -0.11124993949E+03 -0.28775588383E+03  0.26234099069E+03  0.44037687622E+03  0.17300000000E+03 0. -1.
        6    1    1    2  502    0 -0.18519372850E+03  0.10533733428E+03  0.11630512585E+03  0.29807474460E+03  0.17300000000E+03 0. -1.
       -6    1    1    2    0  504  0.26130411394E+03  0.62222122137E+02 -0.25484238642E+03  0.40868701271E+03  0.17300000000E+03 0.  1.
</event>
<event>
 6   0  0.4500850E-05  0.4926279E+03  0.7546771E-02  0.1020845E+00
        3   -1    0    0  503    0  0.00000000000E+00  0.00000000000E+00  0.49036945770E+03  0.49036945770E+03  0.00000000000E+00 0.  1.
       -3   -1    0    0    0  501  0.00000000000E+00  0.00000000000E+00 -0.57486659913E+03  0.57486659913E+03  0.00000000000E+00 0. -1.
        6    1    1    2  502    0 -0.51601254877E+02  0.47262685157E+02 -0.14950900217E+03  0.23912003815E+03  0.17300000000E+03 0. -1.
       -6    1    1    2    0  501 -0.12469376314E+03  0.97685691572E+02 -0.16060803081E+03  0.28427973629E+03  0.17300000000E+03 0. -1.
        6    1    1    2  503    0 -0.46118100023E+00 -0.12896825263E+03  0.19728761014E+03  0.29237719471E+03  0.17300000000E+03 0.  1.
       -6    1    1    2    0  502  0.17675619902E+03 -0.15980124104E+02  0.28332281407E+02  0.24945908769E+03  0.17300000000E+03 0.  1.
</event>
<event>
 6   0  0.4500850E-05  0.2327570E+03  0.7546771E-02  0.1125935E+00
       21   -1    0    0  501  503  0.00000000000E+00  0.00000000000E+00  0.55517289115E+03  0.55517289115E+03  0.00000000000E+00 0. -1.
       21   -1    0    0  502  504  0.00000000000E+00  0.00000000000E+00 -0.71615834429E+03  0.71615834429E+03  0.00000000000E+00 0. -1.
        6    1    1    2  501    0  0.23096644277E+03  0.79642515247E+02 -0.36530364733E+03  0.47229671042E+03  0.17300000000E+03 0. -1.
       -6    1    1    2    0  503 -0.12502447894E+03 -0.22139122428E+02  0.20333205774E+03  0.29562507806E+03  0.17300000000E+03 0. -1.
        6    1    1    2  502    0 -0.18601194066E+02 -0.12858665166E+03  0.13711239045E+03  0.25614320022E+03  0.17300000000E+03 0.  1.
       -6    1    1    2    0  504 -0.87340769767E+02  0.71083258840E+02 -0.13612625399E+03  0.24726624674E+03  0.17300000000E+03 0.  1.
</event>
<event>
 6   0  0.4500850E-05  0.2884703E+03  0.7546771E-02  0.1096492E+00
       21   -1    0    0  504  503  0.00000000000E+00  0.00000000000E+00  0.60520511102E+03  0.60520511102E+03  0.00000000000E+00 0.  1.
       21   -1    0    0  502  504  0.00000000000E+00  0.00000000000E+00 -0.99928055348E+03  0.99928055348E+03  0.00000000000E+00 0.  1.
        6    1    1    2  501    0 -0.20902461037E+02 -0.78641323913E+02  0.35723962906E+03  0.40517961853E+03  0.17300000000E+03 0.  1.
       -6    1    1    2    0  501 -0.53689888723E+01 -0.13033312577E+03 -0.75773928704E+03  0.78810746529E+03  0.17300000000E+03 0.  1.
        6    1    1    2  502    0  0.46262139097E+02  0.92724115021E+02 -0.14104992077E+01  0.20166540737E+03  0.17300000000E+03 0.  1.
       -6    1    1    2    0  503 -0.19990689188E+02  0.11625033466E+03  0.78347147349E+01  0.20953317331E+03  0.17300000000E+03 0.  1.
</event>
<event>
 6   0  0.4500850E-05  0.2700631E+03  0.7546771E-02  0.1105799E+00
       21   -1    0    0  502  503  0.00000000000E+00  0.00000000000E+00  0.21453047975E+04  0.21453047975E+04  0.00000000000E+00 0.  1.
       21   -1    0    0  503  504  0.00000000000E+00  0.00000000000E+00 -0.71041644602E+03  0.71041644602E+03  0.00000000000E+00 0. -1.
        6    1    1    2  501    0  0.67777066517E+02 -0.20648686304E+02 -0.99465510343E+02  0.21176044659E+03  0.17300000000E+03 0.  1.
       -6    1    1    2    0  501  0.95386941355E+02  0.67428681534E+02  0.29352035726E+03  0.36017842218E+03  0.17300000000E+03 0. -1.
        6    1    1    2  502    0 -0.37941620945E+02  0.23370486233E+03  0.16886108228E+04  0.17138824464E+04  0.17300000000E+03 0.  1.
       -6    1    1    2    0  504 -0.12522238693E+03 -0.28048485756E+03 -0.44777731828E+03  0.56989992830E+03  0.17300000000E+03 0. -1.
</event>
<event>
 6   0  0.4500850E-05  0.2646019E+03  0.7546771E-02  0.1104465E+00
       21   -1    0    0  501  503  0.00000000000E+00  0.00000000000E+00  0.46541600383E+03  0.46541600383E+03  0.00000000000E+00 0.  1.
       21   -1    0    0  502  504  0.00000000000E+00  0.00000000000E+00 -0.80691785252E+03  0.80691785252E+03  0.00000000000E+00 0. -1.
        6    1    1    2  501    0  0.13756235152E+03  0.26506393302E+03  0.32313786635E+02  0.34663449042E+03  0.17300000000E+03 0.  1.
       -6    1    1    2    0  503 -0.16162349513E+03 -0.28795389675E+03 -0.24019915887E+03  0.44346841686E+03  0.17300000000E+03 0. -1.
        6    1    1    2  502    0 -0.69708096616E+02  0.56095335734E+02  0.60383241634E+02  0.20391429890E+03  0.17300000000E+03 0.  1.
       -6    1    1    2    0  504  0.93769240222E+02 -0.33205372000E+02 -0.19399971809E+03  0.27831665017E+03  0.17300000000E+03 0. -1.
</event>
<event>
 6   0  0.4500850E-05  0.2642739E+03  0.7546771E-02  0.1105508E+00
       21   -1    0    0  502  503  0.00000000000E+00  0.00000000000E+00  0.47503595608E+03  0.47503595608E+03  0.00000000000E+00 0.  1.
       21   -1    0    0  501  504  0.00000000000E+00  0.00000000000E+00 -0.10370659956E+04  0.10370659956E+04  0.00000000000E+00 0.  1.
        6    1    1    2  501    0 -0.50839985132E+02 -0.33900886589E+02 -0.53114978901E+02  0.19100831182E+03  0.17300000000E+03 0. -1.
       -6    1    1    2    0  504 -0.12880183556E+03  0.28508920550E+03 -0.36563556282E+03  0.51135519234E+03  0.17300000000E+03 0.  1.
        6    1    1    2  502    0 -0.11829435245E+02  0.42806665995E+02 -0.33079551750E+03  0.37593486216E+03  0.17300000000E+03 0.  1.
       -6    1    1    2    0  503  0.19147125594E+03 -0.29399498491E+03  0.18751601972E+03  0.43380358534E+03  0.17300000000E+03 0.  1.
</event>
<event>
 6   0  0.4500850E-05  0.3268847E+03  0.7546771E-02  0.1077908E+00
       21   -1    0    0  504  503  0.00000000000E+00  0.00000000000E+00  0.14677174921E+04  0.14677174921E+04  0.00000000000E+00 0. -1.
       21   -1    0    0  501  504  0.00000000000E+00  0.00000000000E+00 -0.34687497428E+03  0.34687497428E+03  0.00000000000E+00 0.  1.
        6    1    1    2  501    0  0.71547213806E+01  0.14988289560E+03 -0.20870457154E+03  0.30984297735E+03  0.17300000000E+03 0.  1.
       -6    1    1    2    0  503 -0.14407103888E+03 -0.18469319960E+03  0.82552513408E+03  0.87537922594E+03  0.17300000000E+03 0. -1.
        6    1    1    2  502    0  0.68847478984E+02 -0.59930055150E+01  0.23690536457E+03  0.30137857130E+03  0.17300000000E+03 0.  1.
       -6    1    1    2    0  502  0.68068838519E+02  0.40803309519E+02  0.26711659068E+03  0.32799169176E+03  0.17300000000E+03 0.  1.
</event>
<event>
 6   0  0.4500850E-05  0.2359801E+03  0.7546771E-02  0.1126104E+00
       21   -1    0    0  501  503  0.00000000000E+00  0.00000000000E+00  0.45291631651E+03  0.45291631651E+03  0.00000000000E+00 0. -1.
       21   -1    0    0  502  504  0.00000000000E+00  0.00000000000E+00 -0.57300471622E+03  0.57300471622E+03  0.00000000000E+00 0.  1.
        6    1    1    2  501    0 -0.72637264908E+02  0.11727446497E+03 -0.60411202218E+02  0.22936430790E+03  0.17300000000E+03 0. -1.
       -6    1    1    2    0  503 -0.59119789384E+02 -0.15848734924E+03  0.23506627238E+02  0.24309453077E+03  0.17300000000E+03 0. -1.
        6    1    1    2  502    0  0.58878014243E+02 -0.11796007323E+03  0.10701766282E+03  0.24241076625E+03  0.17300000000E+03 0. -1.
       -6    1    1    2    0  504  0.72879040049E+02  0.15917295751E+03 -0.19020148754E+03  0.31105142781E+03  0.17300000000E+03 0. -1.
</event>
<event>
 6   0  0.4500850E-05  0.3957762E+03  0.7546771E-02  0.1073015E+00
       21   -1    0    0  501  503  0.00000000000E+00  0.00000000000E+00  0.19546546061E+03  0.19546546061E+03  0.00000000000E+00 0. -1.
       21   -1    0    0  503  504  0.00000000000E+00  0.00000000000E+00 -0.13342297011E+04  0.13342297011E+04  0.00000000000E+00 0. -1.
        6    1    1    2  501    0  0.42777794608E+02 -0.35544956634E+02 -0.23243762445E+02  0.18320113577E+03  0.17300000000E+03 0.  1.
       -6    1    1    2    0  502  0.64551468667E+01 -0.14657246257E+03 -0.88580701207E+02  0.24351734298E+03  0.17300000000E+03 0. -1.
        6    1    1    2  502    0 -0.25854930829E+02  0.68392450885E+02 -0.58451407993E+03  0.61394764795E+03  0.17300000000E+03 0. -1.
       -6    1    1    2    0  504 -0.23378010646E+02  0.11372496832E+03 -0.44242569694E+03  0.48902903504E+03  0.17300000000E+03 0. -1.
</event>
<event>
 6   0  0.4500850E-05  0.2086384E+03  0.7546771E-02  0.1149185E+00
       21   -1    0    0  501  503  0.00000000000E+00  0.00000000000E+00  0.79653208843E+03  0.79653208843E+03  0.00000000000E+00 0.  1.
       21   -1    0    0  502  504  0.00000000000E+00  0.00000000000E+00 -0.98714282136E+03  0.98714282136E+03  0.00000000000E+00 0.  1.
        6    1    1    2  501    0  0.98257758302E+02  0.71391647939E+02  0.46714910557E+03  0.51274617629E+03  0.17300000000E+03 0. -1.
       -6    1    1    2    0  504 -0.21678288931E+02 -0.13016264054E+03  0.15978287049E+03  0.26994782256E+03  0.17300000000E+03 0.  1.
        6    1    1    2  502    0  0.18037117037E+02 -0.40113212554E+02 -0.74901719745E+03  0.76999361652E+03  0.17300000000E+03 0.  1.
       -6    1    1    2    0  503 -0.94616586408E+02  0.98884205154E+02 -0.68525511540E+02  0.23098729442E+03  0.17300000000E+03 0. -1.
</event>
<event>
 6   0  0.4500850E-05  0.3194463E+03  0.7546771E-02  0.1078041E+00
       21   -1    0    0  504  503  0.00000000000E+00  0.00000000000E+00  0.90612816754E+03  0.90612816754E+03  0.00000000000E+00 0.  1.
       21   -1    0    0  501  504  0.00000000000E+00  0.00000000000E+00 -0.33712681795E+03  0.33712681795E+03  0.00000000000E+00 0.  1.
        6    1    1    2  501    0 -0.10875794933E+03 -0.21954482806E+02  0.63656157135E+02  0.21515435668E+03  0.17300000000E+03 0.  1.
       -6    1    1    2    0  503  0.15023725630E+03 -0.40329273832E+02  0.44517119558E+03  0.50229879244E+03  0.17300000000E+03 0. -1.
        6    1    1    2  502    0  0.15010823550E+03 -0.23849477564E+02  0.99476368453E+02  0.25085020994E+03  0.17300000000E+03 0.  1.
       -6    1    1    2    0  502 -0.19158754247E+03  0.86133234202E+02 -0.39302371581E+02  0.27495162643E+03  0.17300000000E+03 0. -1.
</event>
<event>
 6   0  0.4500850E-05  0.4524492E+03  0.7546771E-02  0.1058807E+00
       21   -1    0    0  501  503  0.00000000000E+00  0.00000000000E+00  0.11418802391E+04  0.11418802391E+04  0.00000000000E+00 0.  1.
       21   -1    0    0  503  504  0.00000000000E+00  0.00000000000E+00 -0.81720247079E+03  0.81720247079E+03  0.00000000000E+00 0.  1.
        6    1    1    2  501    0 -0.13090657279E+03  0.42095292679E+03  0.34108987530E+03  0.58361734073E+03  0.17300000000E+03 0. -1.
       -6    1    1    2    0  502 -0.17815526017E+03 -0.83771859892E+02  0.41261906590E+03  0.48881541995E+03  0.17300000000E+03 0.  1.
        6    1    1    2  502    0 -0.21907463693E+01 -0.50429039059E+02  0.84536335727E+02  0.19905597054E+03  0.17300000000E+03 0. -1.
       -6    1    1    2    0  504  0.31125257933E+03 -0.28675202784E+03 -0.51356750862E+03  0.68759397868E+03  0.17300000000E+03 0.  1.
</event>
<event>
 6   0  0.4500850E-05  0.4279431E+03  0.7546771E-02  0.1034512E+00
       -2   -1    0    0    0  501  0.00000000000E+00  0.00000000000E+00  0.12909856888E+03  0.12909856888E+03  0.00000000000E+00 0.  1.
        2   -1    0    0  503    0  0.00000000000E+00  0.00000000000E+00 -0.17953717010E+04  0.17953717010E+04  0.00000000000E+00 0. -1.
        6    1    1    2  502    0  0.66330468240E+02 -0.59798919388E+02 -0.49050019413E+03  0.52772633269E+03  0.17300000000E+03 0. -1.
       -6    1    1    2    0  502 -0.17955343509E+03 -0.13416758312E+03 -0.29821746383E+03  0.41122139067E+03  0.17300000000E+03 0.  1.
        6    1    1    2  503    0 -0.19739445674E+02  0.14054002051E+03 -0.42768752855E+03  0.48268702609E+03  0.17300000000E+03 0. -1.
       -6    1    1    2    0  501  0.13296241252E+03  0.53426482004E+02 -0.44986794564E+03  0.50283552046E+03  0.17300000000E+03 0. -1.
</event>
<event>
 6   0  0.4500850E-05  0.2065920E+03  0.7546771E-02  0.1146175E+00
       21   -1    0    0  504  503  0.00000000000E+00  0.00000000000E+00  0.11277201673E+04  0.11277201673E+04  0.00000000000E+00 0.  1.
       21   -1    0    0  502  504  0.00000000000E+00  0.00000000000E+00 -0.55877101806E+03  0.55877101806E+03  0.00000000000E+00 0. -1.
        6    1    1    2  501    0  0.11147859292E+03 -0.11617293320E+03  0.26919486408E+03  0.35821571983E+03  0.17300000000E+03 0.  1.
       -6    1    1    2    0  503 -0.19246491354E+02 -0.69758264136E+00  0.68971202589E+03  0.71133859217E+03  0.17300000000E+03 0.  1.
        6    1    1    2  502    0 -0.14494901190E+03  0.14408582482E+03 -0.32891551796E+03  0.42412894138E+03  0.17300000000E+03 0. -1.
       -6    1    1    2    0  501  0.52716910330E+02 -0.27215308983E+02 -0.61042222767E+02  0.19280793199E+03  0.17300000000E+03 0. -1.
</event>
<event>
 6   0  0.4500850E-05  0.6107640E+03  0.7546771E-02  0.1019967E+00
       21   -1    0    0  501  503  0.00000000000E+00  0.00000000000E+00  0.15514152568E+04  0.15514152568E+04  0.00000000000E+00 0. -1.
       21   -1    0    0  502  504  0.00000000000E+00  0.00000000000E+00 -0.10127680220E+04  0.10127680220E+04  0.00000000000E+00 0.  1.
        6    1    1    2  501    0  0.22743333206E+03  0.33904756636E+03 -0.36603987851E+03  0.57497249103E+03  0.17300000000E+03 0. -1.
       -6    1    1    2    0  504 -0.89921032889E+02  0.11663418313E+03  0.93320540891E+01  0.22738824082E+03  0.17300000000E+03 0. -1.
        6    1    1    2  502    0  0.54298225223E+03 -0.21728464771E+03  0.81215492487E+03  0.10156608520E+04  0.17300000000E+03 0. -1.
       -6    1    1    2    0  503 -0.68049455140E+03 -0.23839710177E+03  0.83200134416E+02  0.74616169493E+03  0.17300000000E+03 0.  1.
</event>
<event>
 6   0  0.4500850E-05  0.8091044E+03  0.7546771E-02  0.9576568E-01
       -2   -1    0    0    0  501  0.00000000000E+00  0.00000000000E+00  0.22860432433E+04  0.22860432433E+04  0.00000000000E+00 0.  1.
        2   -1    0    0  503    0  0.00000000000E+00  0.00000000000E+00 -0.36518102781E+03  0.36518102781E+03  0.00000000000E+00 0. -1.
        6    1    1    2  502    0  0.20179167219E+02 -0.87683787067E+01  0.18770929041E+02  0.17540077261E+03  0.17300000000E+03 0.  1.
       -6    1    1    2    0  502 -0.48299250916E+03 -0.20454682497E+03  0.19330843436E+03  0.58516520599E+03  0.17300000000E+03 0. -1.
        6    1    1    2  503    0  0.20128507843E+03  0.19669040495E+03  0.14397384019E+04  0.14771521466E+04  0.17300000000E+03 0.  1.
       -6    1    1    2    0  501  0.26152826351E+03  0.16624798722E+02  0.26904445016E+03  0.41350614591E+03  0.17300000000E+03 0.  1.
</event>
<event>
 6   0  0.4500850E-05  0.2601002E+03  0.7546771E-02  0.1112062E+00
       21   -1    0    0  504  503  0.00000000000E+00  0.00000000000E+00  0.13113824196E+04  0.13113824196E+04  0.00000000000E+00 0.  1.
       21   -1    0    0  502  504  0.00000000000E+00  0.00000000000E+00 -0.30476361016E+03  0.30476361016E+03  0.00000000000E+00 0.  1.
        6    1    1    2  501    0 -0.11575144931E+03 -0.51125354760E+02 -0.43577728564E+02  0.21872406896E+03  0.17300000000E+03 0.  1.
       -6    1    1    2    0  501  0.13507540041E+03  0.28446703944E+03  0.33761840143E+03  0.49303351337E+03  0.17300000000E+03 0.  1.
        6    1    1    2  502    0 -0.82578045903E+02 -0.20735351725E+03  0.16724356495E+03  0.32819814868E+03  0.17300000000E+03 0.  1.
       -6    1    1    2    0  503  0.63254094807E+02 -0.25988167427E+02  0.54533457160E+03  0.57619029871E+03  0.17300000000E+03 0.  1.
</event>
<event>
 6   0  0.4500850E-05  0.4529609E+03  0.7546771E-02  0.1057912E+00
       21   -1    0    0  504  503  0.00000000000E+00  0.00000000000E+00  0.11442033525E+04  0.11442033525E+04  0.00000000000E+00 0.  1.
       21   -1    0    0  502  504  0.00000000000E+00  0.00000000000E+00 -0.17159558795E+04  0.17159558795E+04  0.00000000000E+00 0.  1.
        6    1    1    2  501    0 -0.18401316396E+03 -0.93086395602E+02  0.72328020933E+03  0.77174424699E+03  0.17300000000E+03 0.  1.
       -6    1    1    2    0  501  0.38478767022E+03  0.31879461652E+03 -0.10416612353E+04  0.11681946275E+04  0.17300000000E+03 0. -1.
        6    1    1    2  502    0 -0.26209149313E+03 -0.21053337021E+03 -0.49092329962E+03  0.61963774647E+03  0.17300000000E+03 0.  1.
       -6    1    1    2    0  503  0.61316986879E+02 -0.15174850707E+02  0.23755179860E+03  0.30058261093E+03  0.17300000000E+03 0.  1.
</event>
<event>
 6   0  0.4500850E-05  0.4587592E+03  0.7546771E-02  0.1057465E+00
       21   -1    0    0  504  503  0.00000000000E+00  0.00000000000E+00  0.77595037470E+03  0.77595037470E+03  0.00000000000E+00 0. -1.
       21   -1    0    0  502  504  0.00000000000E+00  0.00000000000E+00 -0.76843237743E+03  0.76843237743E+03  0.00000000000E+00 0. -1.
        6    1    1    2  501    0  0.66732247935E+02  0.70537835234E+02 -0.22682210015E+01  0.19840091719E+03  0.17300000000E+03 0.  1.
       -6    1    1    2    0  503 -0.11015821499E+02 -0.46652498613E+02  0.32696882796E+03  0.37300860367E+03  0.17300000000E+03 0. -1.
        6    1    1    2  502    0 -0.33776454742E+02  0.41260780779E+03 -0.13112029483E+03  0.46744794754E+03  0.17300000000E+03 0. -1.
       -6    1    1    2    0  501 -0.21939971694E+02 -0.43649314441E+03 -0.18606231486E+03  0.50552528373E+03  0.17300000000E+03 0. -1.
</event>
<event>
 6   0  0.4500850E-05  0.2538467E+03  0.7546771E-02  0.1118431E+00
       21   -1    0    0  502  503  0.00000000000E+00  0.00000000000E+00  0.21236686937E+03  0.21236686937E+03  0.00000000000E+00 0. -1.
       21   -1    0    0  503  504  0.00000000000E+00  0.00000000000E+00 -0.15341977438E+04  0.15341977438E+04  0.00000000000E+00 0. -1.
        6    1    1    2  501    0  0.12225317245E+03 -0.15583202160E+03 -0.22744106565E+03  0.34768936635E+03  0.17300000000E+03 0. -1.
       -6    1    1    2    0  504  0.79652048151E+02 -0.91532336171E+02 -0.54836368749E+03  0.58766857249E+03  0.17300000000E+03 0. -1.
        6    1    1    2  502    0 -0.18840898706E+03  0.27316153517E+03 -0.50924284776E+03  0.63195921442E+03  0.17300000000E+03 0. -1.
       -6    1    1    2    0  501 -0.13496233547E+02 -0.25797177396E+02 -0.36783273570E+02  0.17924745994E+03  0.17300000000E+03 0. -1.
</event>
<event>
 6   0  0.4500850E-05  0.2088009E+03  0.7546771E-02  0.1146126E+00
       21   -1    0    0  501  503  0.00000000000E+00  0.00000000000E+00  0.11417755784E+04  0.11417755784E+04  0.00000000000E+00 0. -1.
       21   -1    0    0  503  504  0.00000000000E+00  0.00000000000E+00 -0.14810429033E+04  0.14810429033E+04  0.00000000000E+00 0.  1.
        6    1    1    2  501    0 -0.75648633703E+02 -0.47249114170E+02  0.59820513368E+03  0.62907358594E+03  0.17300000000E+03 0. -1.
       -6    1    1    2    0  502 -0.66256915117E+02  0.66188975490E+02  0.47336081162E+03  0.51261137059E+03  0.17300000000E+03 0.  1.
        6    1    1    2  502    0  0.18732339432E+03 -0.13974028614E+02 -0.62443525328E+03  0.67463598561E+03  0.17300000000E+03 0.  1.
       -6    1    1    2    0  504 -0.45417845501E+02 -0.49658327071E+01 -0.78639801692E+03  0.80649753949E+03  0.17300000000E+03 0.  1.
</event>
<event>
 6   0  0.4500850E-05  0.1990260E+03  0.7546771E-02  0.1153533E+00
       21   -1    0    0  501  503  0.00000000000E+00  0.00000000000E+00  0.17910487037E+04  0.17910487037E+04  0.00000000000E+00 0.  1.
       21   -1    0    0  502  504  0.00000000000E+00  0.00000000000E+00 -0.23371130761E+03  0.23371130761E+03  0.00000000000E+00 0. -1.
        6    1    1    2  501    0 -0.20790220213E+01  0.40305540361E+02  0.10283069298E+04  0.10435386915E+04  0.17300000000E+03 0.  1.
       -6    1    1    2    0  503 -0.75258456651E+02  0.23028433174E+02 -0.88055561853E+02  0.20946819808E+03  0.17300000000E+03 0. -1.
        6    1    1    2  502    0 -0.88462583619E+02 -0.44045609033E+02  0.40423602100E+03  0.45066773243E+03  0.17300000000E+03 0.  1.
       -6    1    1    2    0  504  0.16580006229E+03 -0.19288364502E+02  0.21285000723E+03  0.32108538933E+03  0.17300000000E+03 0. -1.
</event>
<event>
 6   0  0.4500850E-05  0.3185452E+03  0.7546771E-02  0.1092273E+00
       21   -1    0    0  502  503  0.00000000000E+00  0.00000000000E+00  0.24680756249E+03  0.24680756249E+03  0.00000000000E+00 0. -1.
       21   -1    0    0  501  504  0.00000000000E+00  0.00000000000E+00 -0.14947974054E+04  0.14947974054E+04  0.00000000000E+00 0. -1.
        6    1    1    2  501    0  0.17644024006E+03 -0.28163281875E+03 -0.82095724998E+03  0.90241232772E+03  0.17300000000E+03 0. -1.
       -6    1    1    2    0  503 -0.11461769256E+03 -0.13941061700E+02 -0.18627165223E+03  0.27920905621E+03  0.17300000000E+03 0. -1.
        6    1    1    2  502    0 -0.12612006594E+01  0.12149929138E+03 -0.74742297208E+00  0.21140772709E+03  0.17300000000E+03 0.  1.
       -6    1    1    2    0  504 -0.60561346839E+02  0.17407458907E+03 -0.24001351771E+03  0.34857585684E+03  0.17300000000E+03 0. -1.
</event>
<event>
 6   0  0.4500850E-05  0.2300502E+03  0.7546771E-02  0.1137685E+00
       21   -1    0    0  504  503  0.00000000000E+00  0.00000000000E+00  0.17398188186E+04  0.17398188186E+04  0.00000000000E+00 0. -1.
       21   -1    0    0  502  504  0.00000000000E+00  0.00000000000E+00 -0.34815557448E+03  0.34815557448E+03  0.00000000000E+00 0. -1.
        6    1    1    2  501    0  0.51179099590E+02  0.16698877940E+03 -0.97042451216E+02  0.26429300032E+03  0.17300000000E+03 0. -1.
       -6    1    1    2    0  501  0.38450841065E+02 -0.24370931654E+02  0.18882348253E+03  0.26010712609E+03  0.17300000000E+03 0.  1.
        6    1    1    2  502    0 -0.28626689407E+02 -0.50601319616E+01 -0.59308264251E+02  0.18517981124E+03  0.17300000000E+03 0. -1.
       -6    1    1    2    0  503 -0.61003251249E+02 -0.13755771579E+03  0.13591904771E+04  0.13783944554E+04  0.17300000000E+03 0. -1.
</event>
<event>
 6   0  0.4500850E-05  0.2016974E+03  0.7546771E-02  0.1149757E+00
       21   -1    0    0  504  503  0.00000000000E+00  0.00000000000E+00  0.56647100977E+03  0.56647100977E+03  0.00000000000E+00 0. -1.
       21   -1    0    0  502  504  0.00000000000E+00  0.00000000000E+00 -0.35542483232E+03  0.35542483232E+03  0.00000000000E+00 0. -1.
        6    1    1    2  501    0  0.61506324163E+02  0.24225272996E+02  0.21006428793E+03  0.28004624051E+03  0.17300000000E+03 0. -1.
       -6    1    1    2    0  503 -0.14763620772E+03 -0.52342885214E+02  0.33794869336E+02  0.23581204519E+03  0.17300000000E+03 0. -1.
        6    1    1    2  502    0 -0.37808973281E+02  0.10348687875E+02 -0.67286325319E+02  0.18971837912E+03  0.17300000000E+03 0.  1.
       -6    1    1    2    0  501  0.12393885683E+03  0.17768924343E+02  0.34473345502E+02  0.21631917727E+03  0.17300000000E+03 0. -1.
</event>
<event>
 6   0  0.4500850E-05  0.5029056E+03  0.7546771E-02  0.1032034E+00
       21   -1    0    0  502  503  0.00000000000E+00  0.00000000000E+00  0.20150948982E+04  0.20150948982E+04  0.00000000000E+00 0. -1.
       21   -1    0    0  501  504  0.00000000000E+00  0.00000000000E+00 -0.10273407994E+04  0.10273407994E+04  0.00000000000E+00 0. -1.
        6    1    1    2  501    0  0.67054312602E+02 -0.15585415054E+03  0.91818449604E+02  0.25912627186E+03  0.17300000000E+03 0.  1.
       -6    1    1    2    0  504  0.20953401358E+03  0.16669504048E+03  0.13726908424E+04  0.14092199573E+04  0.17300000000E+03 0. -1.
        6    1    1    2  502    0  0.98135328150E+02  0.10972972452E+03  0.36440155261E+03  0.42940499138E+03  0.17300000000E+03 0. -1.
       -6    1    1    2    0  503 -0.37472365433E+03 -0.12057061447E+03 -0.84115674575E+03  0.94468447702E+03  0.17300000000E+03 0. -1.
</event>
<event>
 6   0  0.4500850E-05  0.2484619E+03  0.7546771E-02  0.1128763E+00
       21   -1    0    0  501  503  0.00000000000E+00  0.00000000000E+00  0.21111165418E+04  0.21111165418E+04  0.00000000000E+00 0. -1.
       21   -1    0    0  502  504  0.00000000000E+00  0.00000000000E+00 -0.14813365135E+03  0.14813365135E+03  0.00000000000E+00 0.  1.
        6    1    1    2  501    0  0.92615662304E+02  0.38857317438E+02  0.34613865605E+03  0.39978559408E+03  0.17300000000E+03 0. -1.
       -6    1    1    2    0  504 -0.92285558967E+02 -0.16685132131E+03  0.75043499354E+02  0.26817254634E+03  0.17300000000E+03 0.  1.
        6    1    1    2  502    0  0.26989721504E+01  0.13419327573E+03  0.78733644004E+03  0.81721648877E+03  0.17300000000E+03 0. -1.
       -6    1    1    2    0  503 -0.30290754880E+01 -0.61992718596E+01  0.75446429498E+03  0.77407556393E+03  0.17300000000E+03 0. -1.
</event>
<event>
 6   0  0.4500850E-05  0.6172814E+03  0.7546771E-02  0.1012359E+00
       21   -1    0    0  501  503  0.00000000000E+00  0.00000000000E+00  0.88256799572E+03  0.88256799572E+03  0.00000000000E+00 0. -1.
       21   -1    0    0  503  504  0.00000000000E+00  0.00000000000E+00 -0.75432656169E+03  0.75432656169E+03  0.00000000000E+00 0. -1.
        6    1    1    2  501    0  0.12796388982E+03  0.13859780475E+03 -0.21801290167E+03  0.33621828307E+03  0.17300000000E+03 0.  1.
       -6    1    1    2    0  502 -0.41798914721E+03  0.34307703196E+03  0.17225192923E+03  0.59330978769E+03  0.17300000000E+03 0. -1.
        6    1    1    2  502    0  0.15592149527E+03 -0.12105210235E+03  0.45645394773E+02  0.26641626496E+03  0.17300000000E+03 0. -1.
       -6    1    1    2    0  504  0.13410376213E+03 -0.36062273436E+03  0.12835701170E+03  0.44095022169E+03  0.17300000000E+03 0. -1.
</event>
<event>
 6   0  0.4500850E-05  0.3708399E+03  0.7546771E-02  0.1057721E+00
       21   -1    0    0  502  503  0.00000000000E+00  0.00000000000E+00  0.17310860016E+04  0.17310860016E+04  0.00000000000E+00 0.  1.
       21   -1    0    0  503  504  0.00000000000E+00  0.00000000000E+00 -0.63875343965E+03  0.63875343965E+03  0.00000000000E+00 0. -1.
        6    1    1    2  501    0 -0.14052102160E+02  0.28331476699E+03  0.41330982911E+02  0.33481632117E+03  0.17300000000E+03 0. -1.
       -6    1    1    2    0  504  0.33925826819E+02 -0.21401692421E+03 -0.31772458379E+03  0.42170145449E+03  0.17300000000E+03 0. -1.
        6    1    1    2  502    0  0.10128335166E+03 -0.18460762944E+03  0.13440802269E+04  0.13714295281E+04  0.17300000000E+03 0.  1.
       -6    1    1    2    0  501 -0.12115707631E+03  0.11530978665E+03  0.24645935955E+02  0.24189213753E+03  0.17300000000E+03 0. -1.
</event>
<event>
 6   0  0.4500850E-05  0.3891136E+03  0.7546771E-02  0.1054214E+00
       21   -1    0    0  501  503  0.00000000000E+00  0.00000000000E+00  0.31345277971E+03  0.31345277971E+03  0.00000000000E+00 0.  1.
       21   -1    0    0  502  504  0.00000000000E+00  0.00000000000E+00 -0.14663946833E+04  0.14663946833E+04  0.00000000000E+00 0.  1.
        6    1    1    2  501    0 -0.20677583876E+03 -0.17687753840E+03 -0.29562419812E+03  0.43745237181E+03  0.17300000000E+03 0.  1.
       -6    1    1    2    0  503 -0.18972888019E+02 -0.66649829356E+02 -0.13937846561E+02  0.18688347653E+03  0.17300000000E+03 0. -1.
        6    1    1    2  502    0 -0.59335875625E+01 -0.66750954984E+02  0.26824136816E+02  0.18745514602E+03  0.17300000000E+03 0.  1.
       -6    1    1    2    0  504  0.23168231434E+03  0.31027832274E+03 -0.87020399575E+03  0.96805646868E+03  0.17300000000E+03 0.  1.
</event>
<event>
 6   0  0.4500850E-05  0.4452919E+03  0.7546771E-02  0.1052762E+00
       21   -1    0    0  502  503  0.00000000000E+00  0.00000000000E+00  0.10031299238E+04  0.10031299238E+04  0.00000000000E+00 0. -1.
       21   -1    0    0  501  504  0.00000000000E+00  0.00000000000E+00 -0.14195833929E+04  0.14195833929E+04  0.00000000000E+00 0.  1.
        6    1    1    2  501    0  0.28957114561E+03 -0.54959011631E+02  0.42191428259E+03  0.54296648440E+03  0.17300000000E+03 0. -1.
       -6    1    1    2    0  504  0.29114743670E+03  0.52643783670E+02 -0.21437610468E+03  0.40425772981E+03  0.17300000000E+03 0.  1.
        6    1    1    2  502    0 -0.48063251710E+03 -0.99258626248E+02 -0.94802759686E+03  0.10814551381E+04  0.17300000000E+03 0.  1.
       -6    1    1    2    0  503 -0.10008606521E+03  0.10157385421E+03  0.32403594977E+03  0.39403396434E+03  0.17300000000E+03 0. -1.
</event>
<event>
 6   0  0.4500850E-05  0.2548527E+03  0.7546771E-02  0.1116542E+00
       21   -1    0    0  504  503  0.00000000000E+00  0.00000000000E+00  0.54533208637E+03  0.54533208637E+03  0.00000000000E+00 0.  1.
       21   -1    0    0  502  504  0.00000000000E+00  0.00000000000E+00 -0.12249647381E+04  0.12249647381E+04  0.00000000000E+00 0.  1.
        6    1    1    2  501    0  0.28972344689E+02 -0.30456090344E+03 -0.22877551108E+02  0.35220608031E+03  0.17300000000E+03 0. -1.
       -6    1    1    2    0  503 -0.29120784380E+02  0.59329066569E+02  0.27654585563E+03  0.33282813656E+03  0.17300000000E+03 0.  1.
        6    1    1    2  502    0  0.51095695238E+02  0.14264263673E+03 -0.81413825999E+03  0.84599515263E+03  0.17300000000E+03 0.  1.
       -6    1    1    2    0  501 -0.50947255547E+02  0.10258920014E+03 -0.11916269628E+03  0.23926745499E+03  0.17300000000E+03 0. -1.
</event>
<event>
 6   0  0.4500850E-05  0.6802120E+03  0.7546771E-02  0.1009327E+00
       21   -1    0    0  501  503  0.00000000000E+00  0.00000000000E+00  0.17359841405E+04  0.17359841405E+04  0.00000000000E+00 0. -1.
       21   -1    0    0  502  504  0.00000000000E+00  0.00000000000E+00 -0.63293813239E+03  0.63293813239E+03  0.00000000000E+00 0. -1.
        6    1    1    2  501    0 -0.34130705486E+02  0.39366558127E+03  0.62028099107E+03  0.75552299953E+03  0.17300000000E+03 0. -1.
       -6    1    1    2    0  503  0.12580014683E+03  0.52543754974E+01  0.29575078529E+03  0.36503535775E+03  0.17300000000E+03 0.  1.
        6    1    1    2  502    0 -0.16162984749E+03 -0.59914570303E+03 -0.28364558186E+03  0.70390595761E+03  0.17300000000E+03 0. -1.
       -6    1    1    2    0  504  0.69960406147E+02  0.20022574626E+03  0.47065981355E+03  0.54445795796E+03  0.17300000000E+03 0.  1.
</event>
<event>
 6   0  0.4500850E-05  0.2196510E+03  0.7546771E-02  0.1136889E+00
       21   -1    0    0  502  503  0.00000000000E+00  0.00000000000E+00  0.16753976192E+03  0.16753976192E+03  0.00000000000E+00 0.  1.
       21   -1    0    0  503  504  0.00000000000E+00  0.00000000000E+00 -0.17789482017E+04  0.17789482017E+04  0.00000000000E+00 0.  1.
        6    1    1    2  501    0  0.33431130761E+02 -0.10433886630E+03 -0.61028628439E+03  0.64372555366E+03  0.17300000000E+03 0. -1.
       -6    1    1    2    0  504  0.10665191401E+03  0.71634729935E+02 -0.68918232918E+03  0.72208548535E+03  0.17300000000E+03 0. -1.
        6    1    1    2  502    0  0.81617194313E+02 -0.46315237763E+02 -0.14253341909E+03  0.24300461562E+03  0.17300000000E+03 0. -1.
       -6    1    1    2    0  501 -0.22170023908E+03  0.79019374124E+02 -0.16940640716E+03  0.33767230902E+03  0.17300000000E+03 0.  1.
</event>
<event>
 6   0  0.4500850E-05  0.3314124E+03  0.7546771E-02  0.1093175E+00
       21   -1    0    0  501  503  0.00000000000E+00  0.00000000000E+00  0.12604101310E+04  0.12604101310E+04  0.00000000000E+00 0.  1.
       21   -1    0    0  503  504  0.00000000000E+00  0.00000000000E+00 -0.62610101300E+03  0.62610101300E+03  0.00000000000E+00 0.  1.
        6    1    1    2  501    0 -0.41576228944E+02  0.29565626095E+02  0.76343886707E+03  0.78445561557E+03  0.17300000000E+03 0.  1.
       -6    1    1    2    0  502 -0.18123341358E+03  0.32246741736E+02 -0.13040255458E+02  0.25295147917E+03  0.17300000000E+03 0.  1.
        6    1    1    2  502    0  0.34326319379E+03 -0.27592707533E+03  0.94062912766E+02  0.48243362514E+03  0.17300000000E+03 0.  1.
       -6    1    1    2    0  504 -0.12045355127E+03  0.21411470750E+03 -0.21015240641E+03  0.36667042408E+03  0.17300000000E+03 0.  1.
</event>
<event>
 6   0  0.4500850E-05  0.1933494E+03  0.7546771E-02  0.1157885E+00
       21   -1    0    0  502  503  0.00000000000E+00  0.00000000000E+00  0.11312958923E+03  0.11312958923E+03  0.00000000000E+00 0. -1.
       21   -1    0    0  501  504  0.00000000000E+00  0.00000000000E+00 -0.18374455072E+04  0.18374455072E+04  0.00000000000E+00 0.  1.
        6    1    1    2  501    0 -0.61316295131E+02 -0.68249217026E+02 -0.40409323828E+03  0.44904118842E+03  0.17300000000E+03 0. -1.
       -6    1    1    2    0  504  0.27201186224E+02  0.52193949139E+02 -0.65455503624E+03  0.67958473226E+03  0.17300000000E+03 0.  1.
        6    1    1    2  502    0 -0.60338078222E+02  0.26304430710E+02 -0.57628526754E+03  0.60528201390E+03  0.17300000000E+03 0.  1.
       -6    1    1    2    0  503  0.94453187129E+02 -0.10249162822E+02 -0.89382375892E+02  0.21666716183E+03  0.17300000000E+03 0. -1.
</event>
<event>
 6   0  0.4500850E-05  0.1972282E+03  0.7546771E-02  0.1152125E+00
       21   -1    0    0  504  503  0.00000000000E+00  0.00000000000E+00  0.63938360273E+03  0.63938360273E+03  0.00000000000E+00 0. -1.
       21   -1    0    0  502  504  0.00000000000E+00  0.00000000000E+00 -0.31919234138E+03  0.31919234138E+03  0.00000000000E+00 0.  1.
        6    1    1    2  501    0 -0.62977211217E+02  0.35243559055E+02  0.12148848895E+03  0.22337567131E+03  0.17300000000E+03 0.  1.
       -6    1    1    2    0  501 -0.62231552652E+02 -0.44718793828E+02  0.39841440585E+02  0.19336203623E+03  0.17300000000E+03 0. -1.
        6    1    1    2  502    0 -0.49076249362E+01 -0.75904798991E+02 -0.82825460971E+02  0.20633632806E+03  0.17300000000E+03 0.  1.
       -6    1    1    2    0  503  0.13011638880E+03  0.85380033764E+02  0.24168679279E+03  0.33550190851E+03  0.17300000000E+03 0. -1.
</event>
<event>
 6   0  0.4500850E-05  0.4910887E+03  0.7546771E-02  0.1042850E+00
       21   -1    0    0  502  503  0.00000000000E+00  0.00000000000E+00  0.71682553656E+03  0.71682553656E+03  0.00000000000E+00 0. -1.
       21   -1    0    0  501  504  0.00000000000E+00  0.00000000000E+00 -0.48819837846E+03  0.48819837846E+03  0.00000000000E+00 0. -1.
        6    1    1    2  501    0 -0.47539113005E+02  0.20608458647E+03 -0.11443749278E+02  0.27347903657E+03  0.17300000000E+03 0. -1.
       -6    1    1    2    0  503  0.15942074710E+03 -0.27608038384E+03  0.11747314390E+03  0.38126669469E+03  0.17300000000E+03 0.  1.
        6    1    1    2  502    0 -0.11678897988E+03 -0.75725261192E+02  0.21201050045E+03  0.30700396301E+03  0.17300000000E+03 0. -1.
       -6    1    1    2    0  504  0.49073457912E+01  0.14572105856E+03 -0.89412736961E+02  0.24327422075E+03  0.17300000000E+03 0. -1.
</event>
<event>
 6   0  0.4500850E-05  0.2878583E+03  0.7546771E-02  0.1102428E+00
       21   -1    0    0  504  503  0.00000000000E+00  0.00000000000E+00  0.14675836303E+04  0.14675836303E+04  0.00000000000E+00 0. -1.
       21   -1    0    0  502  504  0.00000000000E+00  0.00000000000E+00 -0.59503623950E+03  0.59503623950E+03  0.00000000000E+00 0. -1.
        6    1    1    2  501    0  0.15857342601E+03  0.27352016052E+03  0.32812092520E+03  0.48739219444E+03  0.17300000000E+03 0.  1.
       -6    1    1    2    0  501 -0.32780858120E+02 -0.30130957656E+03  0.19443670738E+03  0.39949553034E+03  0.17300000000E+03 0. -1.
        6    1    1    2  502    0 -0.16116727326E+03  0.13798883735E+02 -0.36722003912E+03  0.43697237475E+03  0.17300000000E+03 0. -1.
       -6    1    1    2    0  503  0.35374705364E+02  0.13990532306E+02  0.71720979737E+03  0.73875977031E+03  0.17300000000E+03 0. -1.
</event>
<event>
 6   0  0.4500850E-05  0.2292779E+03  0.7546771E-02  0.1127992E+00
       21   -1    0    0  502  503  0.00000000000E+00  0.00000000000E+00  0.55376513708E+03  0.55376513708E+03  0.00000000000E+00 0. -1.
       21   -1    0    0  501  504  0.00000000000E+00  0.00000000000E+00 -0.10538491850E+04  0.10538491850E+04  0.00000000000E+00 0. -1.
        6    1    1    2  501    0 -0.29525753629E+02 -0.24622744961E+03  0.20567964466E+03  0.36569501405E+03  0.17300000000E+03 0.  1.
       -6    1    1    2    0  503 -0.45768827622E+02  0.11725121795E+02  0.14248033368E+03  0.22904564949E+03  0.17300000000E+03 0. -1.
        6    1    1    2  502    0  0.35452482328E+02  0.18876169916E+03 -0.16782821018E+03  0.30819339010E+03  0.17300000000E+03 0.  1.
       -6    1    1    2    0  504  0.39842098923E+02  0.45740628662E+02 -0.68041581612E+03  0.70468026848E+03  0.17300000000E+03 0. -1.
</event>
<event>
 6   0  0.4500850E-05  0.6849657E+03  0.7546771E-02  0.9790043E-01
       21   -1    0    0  504  503  0.00000000000E+00  0.00000000000E+00  0.11943773434E+04  0.11943773434E+04  0.00000000000E+00 0. -1.
       21   -1    0    0  501  504  0.00000000000E+00  0.00000000000E+00 -0.81291334175E+03  0.81291334175E+03  0.00000000000E+00 0.  1.
        6    1    1    2  501    0 -0.51697767083E+02  0.38219272069E+01 -0.25549120481E+02  0.18239798191E+03  0.17300000000E+03 0.  1.
       -6    1    1    2    0  502 -0.31852600530E+03 -0.27325390857E+03 -0.54330454687E+03  0.70797976331E+03  0.17300000000E+03 0.  1.
        6    1    1    2  502    0  0.14709845109E+03  0.15308245565E+03  0.36043938668E+03  0.45267841125E+03  0.17300000000E+03 0.  1.
       -6    1    1    2    0  503  0.22312532129E+03  0.11634952571E+03  0.58987828232E+03  0.66423452868E+03  0.17300000000E+03 0. -1.
</event>
<event>
 6   0  0.4500850E-05  0.4511056E+03  0.7546771E-02  0.1045078E+00
       21   -1    0    0  502  503  0.00000000000E+00  0.00000000000E+00  0.98642053351E+03  0.98642053351E+03  0.00000000000E+00 0. -1.
       21   -1    0    0  501  504  0.00000000000E+00  0.00000000000E+00 -0.21413293210E+04  0.21413293210E+04  0.00000000000E+00 0. -1.
        6    1    1    2  501    0 -0.82133487852E+02  0.67341943381E+02 -0.53862241655E+03  0.57560746588E+03  0.17300000000E+03 0.  1.
       -6    1    1    2    0  504 -0.11454642688E+03  0.33609253361E+03  0.61180035210E+03  0.72822231900E+03  0.17300000000E+03 0. -1.
        6    1    1    2  502    0  0.13910920595E+03  0.25663738253E+03  0.78920477213E+02  0.34838421178E+03  0.17300000000E+03 0. -1.
       -6    1    1    2    0  503  0.57570708786E+02 -0.66007185953E+03 -0.13070072002E+04  0.14755358578E+04  0.17300000000E+03 0. -1.
</event>
<event>
 6   0  0.4500850E-05  0.2118454E+03  0.7546771E-02  0.1144994E+00
       21   -1    0    0  502  503  0.00000000000E+00  0.00000000000E+00  0.15728729982E+04  0.15728729982E+04  0.00000000000E+00 0. -1.
       21   -1    0    0  501  504  0.00000000000E+00  0.00000000000E+00 -0.32195909487E+03  0.32195909487E+03  0.00000000000E+00 0. -1.
        6    1    1    2  501    0 -0.43129340320E+02 -0.83515102863E+02 -0.18929068228E+03  0.27312062317E+03  0.17300000000E+03 0. -1.
       -6    1    1    2    0  504  0.93518027894E+02  0.91272669608E+02  0.33341969883E+03  0.39771097210E+03  0.17300000000E+03 0.  1.
        6    1    1    2  502    0 -0.10577499567E+03 -0.57799863331E+02  0.96613745937E+03  0.98887803308E+03  0.17300000000E+03 0. -1.
       -6    1    1    2    0  503  0.55386308099E+02  0.50042296586E+02  0.14064742735E+03  0.23512246467E+03  0.17300000000E+03 0.  1.
</event>
<event>
 6   0  0.4500850E-05  0.7564906E+03  0.7546771E-02  0.9646368E-01
       21   -1    0    0  502  503  0.00000000000E+00  0.00000000000E+00  0.75379876188E+03  0.75379876188E+03  0.00000000000E+00 0. -1.
       21   -1    0    0  501  504  0.00000000000E+00  0.00000000000E+00 -0.71831806374E+03  0.71831806374E+03  0.00000000000E+00 0. -1.
        6    1    1    2  501    0  0.23405427485E+03  0.40270410319E+03 -0.16009363654E+03  0.52202583343E+03  0.17300000000E+03 0. -1.
       -6    1    1    2    0  504 -0.18386924455E+03 -0.34697981945E+03  0.85548672561E+02  0.43755053374E+03  0.17300000000E+03 0. -1.
        6    1    1    2  502    0 -0.12873235538E+03 -0.16865391660E+03  0.22039419546E+02  0.27464686220E+03  0.17300000000E+03 0. -1.
       -6    1    1    2    0  503  0.78547325074E+02  0.11292963285E+03  0.87986242574E+02  0.23789359625E+03  0.17300000000E+03 0.  1.
</event>
<event>
 6   0  0.4500850E-05  0.4164317E+03  0.7546771E-02  0.1048320E+00
       21   -1    0    0  501  503  0.00000000000E+00  0.00000000000E+00  0.53946542836E+03  0.53946542836E+03  0.00000000000E+00 0.  1.
       21   -1    0    0  502  504  0.00000000000E+00  0.00000000000E+00 -0.28188809852E+04  0.28188809852E+04  0.00000000000E+00 0.  1.
        6    1    1    2  501    0 -0.31981760737E+03  0.57493746568E+02 -0.18061900774E+04  0.18433232024E+04  0.17300000000E+03 0.  1.
       -6    1    1    2    0  504 -0.26233814491E+03 -0.30923730710E+02 -0.59460473097E+03  0.67324688301E+03  0.17300000000E+03 0. -1.
        6    1    1    2  502    0  0.77695336377E+02 -0.13507726169E+03 -0.10109326336E+03  0.25383317320E+03  0.17300000000E+03 0. -1.
       -6    1    1    2    0  503  0.50446041590E+03  0.10850724583E+03  0.22247251486E+03  0.58794315497E+03  0.17300000000E+03 0.  1.
</event>
<event>
 6   0  0.4500850E-05  0.3302432E+03  0.7546771E-02  0.1075049E+00
       21   -1    0    0  501  503  0.00000000000E+00  0.00000000000E+00  0.81521499245E+03  0.81521499245E+03  0.00000000000E+00 0. -1.
       21   -1    0    0  502  504  0.00000000000E+00  0.00000000000E+00 -0.17634643047E+04  0.17634643047E+04  0.00000000000E+00 0. -1.
        6    1    1    2  501    0  0.20747793614E+02  0.41702231082E+03 -0.81257283325E+03  0.92980733918E+03  0.17300000000E+03 0. -1.
       -6    1    1    2    0  504  0.24301599607E+02  0.10397874528E+03 -0.59588059496E+03  0.62960688582E+03  0.17300000000E+03 0. -1.
        6    1    1    2  502    0 -0.86215935483E+02 -0.37817196125E+03 -0.80638146023E+02  0.43229472631E+03  0.17300000000E+03 0.  1.
       -6    1    1    2    0  503  0.41166542262E+02 -0.14282909486E+03  0.54084226198E+03  0.58697034583E+03  0.17300000000E+03 0. -1.
</event>
<event>
 6   0  0.4500850E-05  0.2434320E+03  0.7546771E-02  0.1121757E+00
       21   -1    0    0  504  503  0.00000000000E+00  0.00000000000E+00  0.13807391751E+04  0.13807391751E+04  0.00000000000E+00 0. -1.
       21   -1    0    0  502  504  0.00000000000E+00  0.00000000000E+00 -0.32416964033E+03  0.32416964033E+03  0.00000000000E+00 0.  1.
        6    1    1    2  501    0 -0.35089283670E+01  0.83120995191E+01  0.49180241526E+02  0.18008081445E+03  0.17300000000E+03 0.  1.
       -6    1    1    2    0  503 -0.18471638782E+03 -0.65370766335E+02  0.97111340464E+03  0.10056757557E+04  0.17300000000E+03 0. -1.
        6    1    1    2  502    0 -0.45532677335E+02 -0.73029332600E+02  0.52268792996E+02  0.20016876591E+03  0.17300000000E+03 0.  1.
       -6    1    1    2    0  501  0.23375799352E+03  0.13008799942E+03 -0.15992904342E+02  0.31898347938E+03  0.17300000000E+03 0.  1.
</event>
<event>
 6   0  0.4500850E-05  0.3032984E+03  0.7546771E-02  0.1094262E+00
       21   -1    0    0  501  503  0.00000000000E+00  0.00000000000E+00  0.65522918380E+03  0.65522918380E+03  0.00000000000E+00 0.  1.
       21   -1    0    0  502  504  0.00000000000E+00  0.00000000000E+00 -0.79030664103E+03  0.79030664103E+03  0.00000000000E+00 0.  1.
        6    1    1    2  501    0 -0.82966618447E+02 -0.24557606928E+03  0.24846568506E+02  0.31262984110E+03  0.17300000000E+03 0.  1.
       -6    1    1    2    0  504  0.10836406086E+01  0.24905441929E+03 -0.35160843841E+03  0.46431322618E+03  0.17300000000E+03 0.  1.
        6    1    1    2  502    0 -0.29823754962E+02 -0.14656402150E+03  0.31491175608E+03  0.38919003440E+03  0.17300000000E+03 0.  1.
       -6    1    1    2    0  503  0.11170673280E+03  0.14308567149E+03 -0.12322734342E+03  0.27940272315E+03  0.17300000000E+03 0.  1.
</event>
<event>
 6   0  0.4500850E-05  0.6793505E+03  0.7546771E-02  0.1012945E+00
       21   -1    0    0  502  503  0.00000000000E+00  0.00000000000E+00  0.88283205093E+03  0.88283205093E+03  0.00000000000E+00 0.  1.
       21   -1    0    0  501  504  0.00000000000E+00  0.00000000000E+00 -0.10529515778E+04  0.10529515778E+04  0.00000000000E+00 0.  1.
        6    1    1    2  501    0  0.96784910080E+02 -0.19401304540E+02 -0.15187382499E+03  0.25047632254E+03  0.17300000000E+03 0.  1.
       -6    1    1    2    0  503 -0.36139449311E+02  0.10289817004E+03  0.41824610890E+03  0.46556728924E+03  0.17300000000E+03 0.  1.
        6    1    1    2  502    0 -0.33467385413E+03  0.30114207578E+03  0.91083584546E+02  0.49083434865E+03  0.17300000000E+03 0.  1.
       -6    1    1    2    0  504  0.27402839336E+03 -0.38463894128E+03 -0.52757539535E+03  0.72890566831E+03  0.17300000000E+03 0.  1.
</event>
<event>
 6   0  0.4500850E-05  0.5306149E+03  0.7546771E-02  0.1027400E+00
       21   -1    0    0  501  503  0.00000000000E+00  0.00000000000E+00  0.10321706449E+04  0.10321706449E+04  0.00000000000E+00 0.  1.
       21   -1    0    0  503  504  0.00000000000E+00  0.00000000000E+00 -0.96360041535E+03  0.96360041535E+03  0.00000000000E+00 0.  1.
        6    1    1    2  501    0 -0.33958599641E+02 -0.34783814236E+03  0.29242050323E+02  0.39106093806E+03  0.17300000000E+03 0. -1.
       -6    1    1    2    0  504  0.21486290441E+03 -0.26550901274E+02 -0.65705488844E+03  0.71310668520E+03  0.17300000000E+03 0.  1.
        6    1    1    2  502    0 -0.10281482176E+03  0.27903101014E+03  0.44549174810E+03  0.56286862572E+03  0.17300000000E+03 0.  1.
       -6    1    1    2    0  502 -0.78089483003E+02  0.95358033489E+02  0.25089131954E+03  0.32873481125E+03  0.17300000000E+03 0.  1.
</event>
<event>
 6   0  0.4500850E-05  0.5547950E+03  0.7546771E-02  0.1026478E+00
       21   -1    0    0  501  503  0.00000000000E+00  0.00000000000E+00  0.25880185918E+04  0.25880185918E+04  0.00000000000E+00 0.  1.
       21   -1    0    0  502  504  0.00000000000E+00  0.00000000000E+00 -0.12922379720E+04  0.12922379720E+04  0.00000000000E+00 0. -1.
        6    1    1    2  501    0 -0.33544741914E+03 -0.16779849911E+03 -0.34874399611E+03  0.54058549938E+03  0.17300000000E+03 0. -1.
       -6    1    1    2    0  503 -0.47308116224E+03 -0.52149947645E+03  0.16086972625E+04  0.17645405556E+04  0.17300000000E+03 0.  1.
        6    1    1    2  502    0  0.58840334923E+02 -0.27668374095E+02  0.41731654883E+03  0.45640971272E+03  0.17300000000E+03 0.  1.
       -6    1    1    2    0  504  0.74968824646E+03  0.71696634965E+03 -0.38148919548E+03  0.11187207961E+04  0.17300000000E+03 0.  1.
</event>
<event>
 6   0  0.4500850E-05  0.5399725E+03  0.7546771E-02  0.1015311E+00
       21   -1    0    0  501  503  0.00000000000E+00  0.00000000000E+00  0.62741030882E+03  0.62741030882E+03  0.00000000000E+00 0.  1.
       21   -1    0    0  502  504  0.00000000000E+00  0.00000000000E+00 -0.90000339064E+03  0.90000339064E+03  0.00000000000E+00 0. -1.
        6    1    1    2  501    0  0.11967009131E+03  0.88624286097E+02  0.10600538875E+03  0.25167704958E+03  0.17300000000E+03 0.  1.
       -6    1    1    2    0  503  0.21429395797E+03  0.22087321292E+02 -0.16822676478E+02  0.27680634499E+03  0.17300000000E+03 0. -1.
        6    1    1    2  502    0 -0.51514852180E+03  0.12311433218E+03 -0.34600736971E+03  0.65588508002E+03  0.17300000000E+03 0. -1.
       -6    1    1    2    0  504  0.18118447252E+03 -0.23382593957E+03 -0.15768424373E+02  0.34304522487E+03  0.17300000000E+03 0.  1.
</event>
<event>
 6   0  0.4500850E-05  0.3395492E+03  0.7546771E-02  0.1091900E+00
       21   -1    0    0  501  503  0.00000000000E+00  0.00000000000E+00  0.61285004339E+03  0.61285004339E+03  0.00000000000E+00 0. -1.
       21   -1    0    0  502  504  0.00000000000E+00  0.00000000000E+00 -0.11226253580E+04  0.11226253580E+04  0.00000000000E+00 0.  1.
        6    1    1    2  501    0 -0.11509817138E+02  0.38741317867E+01  0.28087521439E+03  0.33010206126E+03  0.17300000000E+03 0.  1.
       -6    1    1    2    0  504 -0.53662987833E+02  0.72623422647E+02  0.14363595999E+03  0.24231006331E+03  0.17300000000E+03 0. -1.
        6    1    1    2  502    0 -0.13828260210E+03  0.20701934778E+03 -0.41491681346E+03  0.51387162842E+03  0.17300000000E+03 0. -1.
       -6    1    1    2    0  503  0.20345540707E+03 -0.28351690221E+03 -0.51936967555E+03  0.64919164842E+03  0.17300000000E+03 0.  1.
</event>
<event>
 6   0  0.4500850E-05  0.2969188E+03  0.7546771E-02  0.1087607E+00
       21   -1    0    0  504  503  0.00000000000E+00  0.00000000000E+00  0.89671711381E+03  0.89671711381E+03  0.00000000000E+00 0. -1.
       21   -1    0    0  501  504  0.00000000000E+00  0.00000000000E+00 -0.37350697952E+03  0.37350697952E+03  0.00000000000E+00 0. -1.
        6    1    1    2  501    0 -0.56348744311E+02  0.11041974912E+03 -0.20277365233E+03  0.29396233783E+03  0.17300000000E+03 0. -1.
       -6    1    1    2    0  503  0.78494652224E+02  0.90614733335E+02  0.28340031328E+03  0.35301158322E+03  0.17300000000E+03 0. -1.
        6    1    1    2  502    0  0.27220885213E+02 -0.36211635840E+02  0.10719471532E+03  0.20849931931E+03  0.17300000000E+03 0. -1.
       -6    1    1    2    0  502 -0.49366793125E+02 -0.16482284662E+03  0.33538875802E+03  0.41475085296E+03  0.17300000000E+03 0. -1.
</event>
<event>
 6   0  0.4500850E-05  0.2914460E+03  0.7546771E-02  0.1098425E+00
       21   -1    0    0  501  503  0.00000000000E+00  0.00000000000E+00  0.74500894276E+03  0.74500894276E+03  0.00000000000E+00 0. -1.
       21   -1    0    0  502  504  0.00000000000E+00  0.00000000000E+00 -0.95747838618E+03  0.95747838618E+03  0.00000000000E+00 0. -1.
        6    1    1    2  501    0 -0.11476014623E+03  0.39042563830E+03  0.31015621205E+03  0.54011845560E+03  0.17300000000E+03 0. -1.
       -6    1    1    2    0  504 -0.55827386622E+02 -0.20552709200E+03 -0.44922062828E+01  0.27442168748E+03  0.17300000000E+03 0.  1.
        6    1    1    2  502    0  0.20680950713E+02 -0.10429405812E+03 -0.59872799498E+03  0.63222556438E+03  0.17300000000E+03 0. -1.
       -6    1    1    2    0  503  0.14990658214E+03 -0.80604488180E+02  0.80594545803E+02  0.25572162149E+03  0.17300000000E+03 0.  1.
</event>
<event>
 6   0  0.4500850E-05  0.2668686E+03  0.7546771E-02  0.1103808E+00
       21   -1    0    0  502  503  0.00000000000E+00  0.00000000000E+00  0.44873209108E+03  0.44873209108E+03  0.00000000000E+00 0. -1.
       21   -1    0    0  501  504  0.00000000000E+00  0.00000000000E+00 -0.11796042297E+04  0.11796042297E+04  0.00000000000E+00 0.  1.
        6    1    1    2  501    0 -0.33503427009E+03 -0.30066895802E+02  0.14918323826E+03  0.40661605838E+03  0.17300000000E+03 0. -1.
       -6    1    1    2    0  504 -0.43261666678E+02  0.75815192021E+02 -0.13380413749E+03  0.23548261582E+03  0.17300000000E+03 0. -1.
        6    1    1    2  502    0  0.35477322561E+03  0.19407793239E+02 -0.68365082516E+03  0.78965065364E+03  0.17300000000E+03 0.  1.
       -6    1    1    2    0  503  0.23522711154E+02 -0.65156089458E+02 -0.62600414238E+02  0.19658699295E+03  0.17300000000E+03 0.  1.
</event>
<event>
 6   0  0.4500850E-05  0.2719376E+03  0.7546771E-02  0.1116193E+00
       21   -1    0    0  502  503  0.00000000000E+00  0.00000000000E+00  0.99938100322E+03  0.99938100322E+03  0.00000000000E+00 0. -1.
       21   -1    0    0  503  504  0.00000000000E+00  0.00000000000E+00 -0.72862693943E+03  0.72862693943E+03  0.00000000000E+00 0.  1.
        6    1    1    2  501    0  0.15778116598E+03 -0.42143274209E+02 -0.10960347450E+02  0.23815978064E+03  0.17300000000E+03 0.  1.
       -6    1    1    2    0  501 -0.44777080048E+02 -0.26011229864E+02 -0.16531809232E+03  0.24482778156E+03  0.17300000000E+03 0.  1.
        6    1    1    2  502    0  0.80502396911E+02 -0.18683049348E+03  0.73435128721E+03  0.78140071809E+03  0.17300000000E+03 0. -1.
       -6    1    1    2    0  504 -0.19350648285E+03  0.25498499755E+03 -0.28731878365E+03  0.46361966235E+03  0.17300000000E+03 0.  1.
</event>
<event>
 6   0  0.4500850E-05  0.2690710E+03  0.7546771E-02  0.1108243E+00
       21   -1    0    0  501  503  0.00000000000E+00  0.00000000000E+00  0.36830108872E+03  0.36830108872E+03  0.00000000000E+00 0. -1.
       21   -1    0    0  502  504  0.00000000000E+00  0.00000000000E+00 -0.10656931009E+04  0.10656931009E+04  0.00000000000E+00 0.  1.
        6    1    1    2  501    0 -0.52289826387E+02 -0.14533725729E+03 -0.27992260432E+03  0.36351452338E+03  0.17300000000E+03 0.  1.
       -6    1    1    2    0  503 -0.99802161807E+02  0.16417036397E+01 -0.15967850966E+02  0.20036750973E+03  0.17300000000E+03 0.  1.
        6    1    1    2  502    0  0.32892014701E+03  0.13679478844E+03  0.28628999906E+01  0.39602837455E+03  0.17300000000E+03 0. -1.
       -6    1    1    2    0  504 -0.17682815881E+03  0.69007652058E+01 -0.40436445687E+03  0.47408378193E+03  0.17300000000E+03 0. -1.
</event>
<event>
 6   0  0.4500850E-05  0.3839057E+03  0.7546771E-02  0.1051556E+00
       21   -1    0    0  502  503  0.00000000000E+00  0.00000000000E+00  0.50626559346E+03  0.50626559346E+03  0.00000000000E+00 0.  1.
       21   -1    0    0  501  504  0.00000000000E+00  0.00000000000E+00 -0.13827107175E+04  0.13827107175E+04  0.00000000000E+00 0. -1.
        6    1    1    2  501    0  0.11664820730E+03 -0.20726165484E+03  0.10630958752E+02  0.29428933912E+03  0.17300000000E+03 0.  1.
       -6    1    1    2    0  503 -0.14429798097E+03  0.22127342385E+03 -0.28211233979E+03  0.42343855243E+03  0.17300000000E+03 0. -1.
        6    1    1    2  502    0  0.21619452951E+03 -0.40475968074E+03 -0.13498445450E+03  0.50864553148E+03  0.17300000000E+03 0.  1.
       -6    1    1    2    0  504 -0.18854475584E+03  0.39074791172E+03 -0.46997928846E+03  0.66260288790E+03  0.17300000000E+03 0. -1.
</event>
<event>
 6   0  0.4500850E-05  0.4513319E+03  0.7546771E-02  0.1027326E+00
        2   -1    0    0  502    0  0.00000000000E+00  0.00000000000E+00  0.48600393805E+03  0.48600393805E+03  0.00000000000E+00 0. -1.
       -2   -1    0    0    0  501  0.00000000000E+00  0.00000000000E+00 -0.85697122591E+03  0.85697122591E+03  0.00000000000E+00 0.  1.
        6    1    1    2  502    0 -0.17782235507E+03 -0.66941005419E+02  0.23262468375E+03  0.34661957772E+03  0.17300000000E+03 0. -1.
       -6    1    1    2    0  503 -0.11179175633E+03 -0.55595461537E+02 -0.11361827249E+03  0.24171546076E+03  0.17300000000E+03 0.  1.
        6    1    1    2  503    0 -0.43080288465E+02  0.30526704429E+02 -0.21312856662E+03  0.27953636051E+03  0.17300000000E+03 0. -1.
       -6    1    1    2    0  501  0.33269439986E+03  0.92009762527E+02 -0.27684513250E+03  0.47510376497E+03  0.17300000000E+03 0.  1.
</event>
<event>
 6   0  0.4500850E-05  0.2325942E+03  0.7546771E-02  0.1135578E+00
       21   -1    0    0  501  503  0.00000000000E+00  0.00000000000E+00  0.51549528197E+03  0.51549528197E+03  0.00000000000E+00 0.  1.
       21   -1    0    0  503  504  0.00000000000E+00  0.00000000000E+00 -0.45589620284E+03  0.45589620284E+03  0.00000000000E+00 0.  1.
        6    1    1    2  501    0  0.14385786212E+03 -0.66454486750E+01  0.91911077425E+02  0.24313760021E+03  0.17300000000E+03 0.  1.
       -6    1    1    2    0  504 -0.80731451372E+02 -0.12862757953E+03 -0.25255379423E+02  0.23158034382E+03  0.17300000000E+03 0.  1.
        6    1    1    2  502    0 -0.42520587913E+02  0.17473281294E+03 -0.12848727143E+03  0.28067336040E+03  0.17300000000E+03 0. -1.
       -6    1    1    2    0  502 -0.20605822832E+02 -0.39459784742E+02  0.12143065256E+03  0.21600018039E+03  0.17300000000E+03 0. -1.
</event>
<event>
 6   0  0.4500850E-05  0.2792510E+03  0.7546771E-02  0.1099744E+00
       21   -1    0    0  502  503  0.00000000000E+00  0.00000000000E+00  0.15622334664E+04  0.15622334664E+04  0.00000000000E+00 0.  1.
       21   -1    0    0  501  504  0.00000000000E+00  0.00000000000E+00 -0.10024896310E+04  0.10024896310E+04  0.00000000000E+00 0. -1.
        6    1    1    2  501    0  0.16352344261E+03  0.15883545205E+03  0.95695955663E+03  0.99883392520E+03  0.17300000000E+03 0. -1.
       -6    1    1    2    0  504  0.26441560589E+03 -0.18206382926E+03 -0.53591201983E+02  0.36859716153E+03  0.17300000000E+03 0.  1.
        6    1    1    2  502    0 -0.18503630977E+03 -0.31643122732E+01 -0.69261198504E+03  0.73748817660E+03  0.17300000000E+03 0. -1.
       -6    1    1    2    0  503 -0.24290273873E+03  0.26392689477E+02  0.34898746575E+03  0.45980383403E+03  0.17300000000E+03 0.  1.
</event>
<event>
 6   0  0.4500850E-05  0.2245489E+03  0.7546771E-02  0.1131717E+00
       21   -1    0    0  501  503  0.00000000000E+00  0.00000000000E+00  0.26821533379E+03  0.26821533379E+03  0.00000000000E+00 0.  1.
       21   -1    0    0  503  504  0.00000000000E+00  0.00000000000E+00 -0.12438800700E+04  0.12438800700E+04  0.00000000000E+00 0.  1.
        6    1    1    2  501    0  0.65293254538E+01  0.17371945505E+03  0.37628680634E+02  0.24812496601E+03  0.17300000000E+03 0. -1.
       -6    1    1    2    0  504  0.76724373401E+02  0.60693558295E+02 -0.52630325304E+03  0.56257839601E+03  0.17300000000E+03 0.  1.
        6    1    1    2  502    0  0.20392229798E+02 -0.21601731747E+03 -0.38517315315E+03  0.47472800885E+03  0.17300000000E+03 0.  1.
       -6    1    1    2    0  502 -0.10364592865E+03 -0.18395695877E+02 -0.10181701063E+03  0.22666403289E+03  0.17300000000E+03 0. -1.
</event>
<event>
 6   0  0.4500850E-05  0.5715649E+03  0.7546771E-02  0.1016810E+00
       21   -1    0    0  501  503  0.00000000000E+00  0.00000000000E+00  0.10566367871E+04  0.10566367871E+04  0.00000000000E+00 0. -1.
       21   -1    0    0  502  504  0.00000000000E+00  0.00000000000E+00 -0.11371508401E+04  0.11371508401E+04  0.00000000000E+00 0. -1.
        6    1    1    2  501    0 -0.26364359458E+03  0.10611778597E+03  0.57784276832E+03  0.66678346887E+03  0.17300000000E+03 0. -1.
       -6    1    1    2    0  504 -0.12608668457E+03  0.12782369495E+03  0.28111485309E+03  0.37575432086E+03  0.17300000000E+03 0. -1.
        6    1    1    2  502    0  0.14300978541E+03 -0.28182768601E+03 -0.51169250092E+03  0.62580896352E+03  0.17300000000E+03 0. -1.
       -6    1    1    2    0  503  0.24672049373E+03  0.47886205089E+02 -0.42777917351E+03  0.52544087389E+03  0.17300000000E+03 0.  1.
</event>
<event>
 6   0  0.4500850E-05  0.2607856E+03  0.7546771E-02  0.1122132E+00
       21   -1    0    0  501  503  0.00000000000E+00  0.00000000000E+00  0.20913571642E+03  0.20913571642E+03  0.00000000000E+00 0.  1.
       21   -1    0    0  502  504  0.00000000000E+00  0.00000000000E+00 -0.15240143278E+04  0.15240143278E+04  0.00000000000E+00 0. -1.
        6    1    1    2  501    0  0.78177002294E+02 -0.72765709179E+01 -0.30858922478E+01  0.19000819694E+03  0.17300000000E+03 0. -1.
       -6    1    1    2    0  503  0.31376015068E+01  0.17278651029E+03 -0.43766656545E+03  0.50134423821E+03  0.17300000000E+03 0. -1.
        6    1    1    2  502    0 -0.84483827198E+02 -0.20011629461E+03 -0.80625871949E+03  0.85274038909E+03  0.17300000000E+03 0. -1.
       -6    1    1    2    0  504  0.31692233975E+01  0.34606355245E+02 -0.67867434189E+02  0.18905721997E+03  0.17300000000E+03 0.  1.
</event>
<event>
 6   0  0.4500850E-05  0.3008393E+03  0.7546771E-02  0.1100462E+00
       21   -1    0    0  502  503  0.00000000000E+00  0.00000000000E+00  0.27018262869E+04  0.27018262869E+04  0.00000000000E+00 0.  1.
       21   -1    0    0  501  504  0.00000000000E+00  0.00000000000E+00 -0.16542759102E+03  0.16542759102E+03  0.00000000000E+00 0.  1.
        6    1    1    2  501    0  0.79424444993E+02  0.59237249699E+02  0.16095271818E+03  0.25622660225E+03  0.17300000000E+03 0.  1.
       -6    1    1    2    0  503 -0.24470157900E+03 -0.95573603190E+02  0.46168632723E+03  0.55865592375E+03  0.17300000000E+03 0. -1.
        6    1    1    2  502    0  0.12367985048E+03 -0.22221365616E+03  0.15098125904E+04  0.15408240238E+04  0.17300000000E+03 0.  1.
       -6    1    1    2    0  504  0.41597283525E+02  0.25855000965E+03  0.40394706010E+03  0.51154732806E+03  0.17300000000E+03 0.  1.
</event>
<event>
 6   0  0.4500850E-05  0.2205581E+03  0.7546771E-02  0.1140106E+00
       21   -1    0    0  502  503  0.00000000000E+00  0.00000000000E+00  0.10424182237E+04  0.10424182237E+04  0.00000000000E+00 0. -1.
       21   -1    0    0  501  504  0.00000000000E+00  0.00000000000E+00 -0.46414693665E+03  0.46414693665E+03  0.00000000000E+00 0.  1.
        6    1    1    2  501    0  0.66425315750E+02  0.11117501189E+03  0.54707731041E+03  0.58821321764E+03  0.17300000000E+03 0.  1.
       -6    1    1    2    0  504 -0.52417482602E+02 -0.23087857423E+02 -0.13876893331E+03  0.22905557949E+03  0.17300000000E+03 0.  1.
        6    1    1    2  502    0 -0.55254190646E+02  0.11786197115E+03 -0.15439291884E+03  0.26591472922E+03  0.17300000000E+03 0. -1.
       -6    1    1    2    0  503  0.41246357498E+02 -0.20594912562E+03  0.32435582878E+03  0.42338163400E+03  0.17300000000E+03 0. -1.
</event>
<event>
 6   0  0.4500850E-05  0.7654715E+03  0.7546771E-02  0.9616210E-01
       21   -1    0    0  501  503  0.00000000000E+00  0.00000000000E+00  0.15648563712E+04  0.15648563712E+04  0.00000000000E+00 0.  1.
       21   -1    0    0  503  504  0.00000000000E+00  0.00000000000E+00 -0.37606602405E+03  0.37606602405E+03  0.00000000000E+00 0.  1.
        6    1    1    2  501    0 -0.14401333692E+03 -0.15726484358E+03  0.38752208147E+03  0.47494677161E+03  0.17300000000E+03 0. -1.
       -6    1    1    2    0  504  0.17978517381E+03  0.34763740654E+03  0.16317926588E+03  0.45796391557E+03  0.17300000000E+03 0.  1.
        6    1    1    2  502    0  0.12363749876E+03  0.21950555207E+03  0.28739813307E+03  0.41951830160E+03  0.17300000000E+03 0.  1.
       -6    1    1    2    0  502 -0.15940933565E+03 -0.40987811502E+03  0.35069086675E+03  0.58849340650E+03  0.17300000000E+03 0.  1.
</event>
<event>
 6   0  0.4500850E-05  0.2755172E+03  0.7546771E-02  0.1103720E+00
       21   -1    0    0  501  503  0.00000000000E+00  0.00000000000E+00  0.78123980748E+03  0.78123980748E+03  0.00000000000E+00 0.  1.
       21   -1    0    0  502  504  0.00000000000E+00  0.00000000000E+00 -0.13964794993E+04  0.13964794993E+04  0.00000000000E+00 0.  1.
        6    1    1    2  501    0 -0.16234355548E+03  0.27735332865E+03  0.23501714201E+03  0.43409947703E+03  0.17300000000E+03 0.  1.
       -6    1    1    2    0  504  0.14819663106E+03  0.21404152376E+02  0.29842706909E+03  0.37604267678E+03  0.17300000000E+03 0.  1.
        6    1    1    2  502    0  0.88318645584E+02 -0.58867385672E+02 -0.10142095942E+04  0.10343189321E+04  0.17300000000E+03 0.  1.
       -6    1    1    2    0  503 -0.74171721160E+02 -0.23989009536E+03 -0.13447430868E+03  0.33325822085E+03  0.17300000000E+03 0.  1.
</event>
<event>
 6   0  0.4500850E-05  0.2920719E+03  0.7546771E-02  0.1097446E+00
       21   -1    0    0  501  503  0.00000000000E+00  0.00000000000E+00  0.17645068045E+03  0.17645068045E+03  0.00000000000E+00 0.  1.
       21   -1    0    0  502  504  0.00000000000E+00  0.00000000000E+00 -0.26302772441E+04  0.26302772441E+04  0.00000000000E+00 0.  1.
        6    1    1    2  501    0  0.28941030085E+02  0.77261598266E+02 -0.34457744942E+02  0.19473898936E+03  0.17300000000E+03 0.  1.
       -6    1    1    2    0  503 -0.55532644834E+02 -0.29609062634E+03 -0.92145122077E+03  0.98476133449E+03  0.17300000000E+03 0.  1.
        6    1    1    2  502    0  0.12913453077E+03 -0.10652888232E+03 -0.74154012598E+03  0.77963766472E+03  0.17300000000E+03 0.  1.
       -6    1    1    2    0  504 -0.10254291602E+03  0.32535791040E+03 -0.75637747196E+03  0.84758993598E+03  0.17300000000E+03 0.  1.
</event>
<event>
 6   0  0.4500850E-05  0.4260854E+03  0.7546771E-02  0.1057351E+00
       21   -1    0    0  502  503  0.00000000000E+00  0.00000000000E+00  0.11507389324E+04  0.11507389324E+04  0.00000000000E+00 0. -1.
       21   -1    0    0  503  504  0.00000000000E+00  0.00000000000E+00 -0.22071763826E+04  0.22071763826E+04  0.00000000000E+00 0. -1.
        6    1    1    2  501    0  0.14314787430E+03  0.35896427914E+03 -0.10454362227E+04  0.11279240060E+04  0.17300000000E+03 0.  1.
       -6    1    1    2    0  504  0.11317938829E+03  0.17789804545E+02 -0.95670962374E+03  0.97895268284E+03  0.17300000000E+03 0. -1.
        6    1    1    2  502    0  0.10418246907E+03 -0.34899513207E+03  0.59312669724E+03  0.71720280817E+03  0.17300000000E+03 0. -1.
       -6    1    1    2    0  501 -0.36050973165E+03 -0.27758951615E+02  0.35258169899E+03  0.53383581790E+03  0.17300000000E+03 0.  1.
</event>
<event>
 6   0  0.4500850E-05  0.4179342E+03  0.7546771E-02  0.1040271E+00
       21   -1    0    0  504  503  0.00000000000E+00  0.00000000000E+00  0.89457983638E+03  0.89457983638E+03  0.00000000000E+00 0. -1.
       21   -1    0    0  501  504  0.00000000000E+00  0.00000000000E+00 -0.87707021163E+03  0.87707021163E+03  0.00000000000E+00 0.  1.
        6    1    1    2  501    0  0.14472702371E+02 -0.39603023708E+03 -0.10905251424E+03  0.44594939024E+03  0.17300000000E+03 0. -1.
       -6    1    1    2    0  502 -0.45616629618E+03 -0.74143113275E+01 -0.10319913001E+03  0.49872008404E+03  0.17300000000E+03 0.  1.
        6    1    1    2  502    0  0.34814057794E+03  0.69740687472E+02  0.18788809405E+03  0.43737462361E+03  0.17300000000E+03 0. -1.
       -6    1    1    2    0  503  0.93553015876E+02  0.33370386094E+03  0.41873174947E+02  0.38960595011E+03  0.17300000000E+03 0.  1.
</event>
<event>
 6   0  0.4500850E-05  0.4357376E+03  0.7546771E-02  0.1037596E+00
       21   -1    0    0  501  503  0.00000000000E+00  0.00000000000E+00  0.15664245300E+04  0.15664245300E+04  0.00000000000E+00 0.  1.
       21   -1    0    0  503  504  0.00000000000E+00  0.00000000000E+00 -0.77973374444E+03  0.77973374444E+03  0.00000000000E+00 0. -1.
        6    1    1    2  501    0 -0.14279900066E+03 -0.74345695950E+01  0.49643416924E+03  0.54481438289E+03  0.17300000000E+03 0.  1.
       -6    1    1    2    0  504  0.55914254255E+02  0.32263888851E+03 -0.53692875647E+03  0.65226048917E+03  0.17300000000E+03 0. -1.
        6    1    1    2  502    0  0.20158785325E+03 -0.28368974579E+03  0.11309341146E+03  0.40476740749E+03  0.17300000000E+03 0.  1.
       -6    1    1    2    0  502 -0.11470310685E+03 -0.31514573125E+02  0.71409196136E+03  0.74431599494E+03  0.17300000000E+03 0.  1.
</event>
<event>
 6   0  0.4500850E-05  0.2528437E+03  0.7546771E-02  0.1126181E+00
       21   -1    0    0  502  503  0.00000000000E+00  0.00000000000E+00  0.34188668647E+03  0.34188668647E+03  0.00000000000E+00 0. -1.
       21   -1    0    0  501  504  0.00000000000E+00  0.00000000000E+00 -0.59359851211E+03  0.59359851211E+03  0.00000000000E+00 0.  1.
        6    1    1    2  501    0 -0.12570964333E+03 -0.10487881993E+03 -0.65619398036E+02  0.24705745626E+03  0.17300000000E+03 0. -1.
       -6    1    1    2    0  503  0.14960856028E+03  0.13151429397E+03  0.44042265530E+02  0.26748355460E+03  0.17300000000E+03 0.  1.
        6    1    1    2  502    0 -0.37214610311E+02 -0.31296048522E+01 -0.10586241677E+03  0.20622941820E+03  0.17300000000E+03 0.  1.
       -6    1    1    2    0  504  0.13315693359E+02 -0.23505869185E+02 -0.12427227636E+03  0.21471476951E+03  0.17300000000E+03 0.  1.
</event>
<event>
 6   0  0.4500850E-05  0.4340895E+03  0.7546771E-02  0.1063533E+00
       21   -1    0    0  501  503  0.00000000000E+00  0.00000000000E+00  0.47289009592E+03  0.47289009592E+03  0.00000000000E+00 0.  1.
       21   -1    0    0  502  504  0.00000000000E+00  0.00000000000E+00 -0.11159033726E+04  0.11159033726E+04  0.00000000000E+00 0. -1.
        6    1    1    2  501    0 -0.23197480847E+02  0.38893273303E+02  0.31567228304E+02  0.18159377668E+03  0.17300000000E+03 0. -1.
       -6    1    1    2    0  503 -0.25470636799E+03 -0.32347838968E+03 -0.32623649838E+03  0.55305773239E+03  0.17300000000E+03 0.  1.
        6    1    1    2  502    0  0.41007615543E+03  0.11483589265E+03 -0.35054400516E+03  0.57806559753E+03  0.17300000000E+03 0. -1.
       -6    1    1    2    0  504 -0.13217230660E+03  0.16974922373E+03  0.21999986045E+01  0.27607636187E+03  0.17300000000E+03 0.  1.
</event>
<event>
 6   0  0.4500850E-05  0.5174849E+03  0.7546771E-02  0.1033326E+00
       21   -1    0    0  502  503  0.00000000000E+00  0.00000000000E+00  0.21426964663E+04  0.21426964663E+04  0.00000000000E+00 0.  1.
       21   -1    0    0  501  504  0.00000000000E+00  0.00000000000E+00 -0.61432428274E+03  0.61432428274E+03  0.00000000000E+00 0.  1.
        6    1    1    2  501    0  0.26965204901E+03 -0.21471290605E+02  0.10794133339E+04  0.11261595754E+04  0.17300000000E+03 0. -1.
       -6    1    1    2    0  504 -0.17968321995E+03  0.24409161740E+02 -0.26508719785E+02  0.25201900511E+03  0.17300000000E+03 0. -1.
        6    1    1    2  502    0 -0.19318289815E+03  0.10927475827E+02 -0.40196140016E+03  0.47847780417E+03  0.17300000000E+03 0.  1.
       -6    1    1    2    0  503  0.10321406909E+03 -0.13865346962E+02  0.87742896962E+03  0.90036436437E+03  0.17300000000E+03 0.  1.
</event>
<event>
 6   0  0.4500850E-05  0.3376632E+03  0.7546771E-02  0.1078852E+00
       21   -1    0    0  501  503  0.00000000000E+00  0.00000000000E+00  0.43786821225E+03  0.43786821225E+03  0.00000000000E+00 0.  1.
       21   -1    0    0  502  504  0.00000000000E+00  0.00000000000E+00 -0.26313116023E+04  0.26313116023E+04  0.00000000000E+00 0. -1.
        6    1    1    2  501    0 -0.10384469407E+02 -0.31027024330E+03 -0.23855542408E+03  0.42803405407E+03  0.17300000000E+03 0. -1.
       -6    1    1    2    0  504  0.26684301543E+03 -0.90522737322E+02 -0.30297762195E+03  0.44846850531E+03  0.17300000000E+03 0. -1.
        6    1    1    2  502    0  0.78368499910E+02  0.13367926545E+03 -0.17112531719E+04  0.17269418596E+04  0.17300000000E+03 0.  1.
       -6    1    1    2    0  503 -0.33482704593E+03  0.26711371517E+03  0.59342827905E+02  0.46573539563E+03  0.17300000000E+03 0.  1.
</event>
<event>
 6   0  0.4500850E-05  0.4133927E+03  0.7546771E-02  0.1046344E+00
       21   -1    0    0  504  503  0.00000000000E+00  0.00000000000E+00  0.16804037448E+04  0.16804037448E+04  0.00000000000E+00 0. -1.
       21   -1    0    0  502  504  0.00000000000E+00  0.00000000000E+00 -0.81583137909E+03  0.81583137909E+03  0.00000000000E+00 0.  1.
        6    1    1    2  501    0  0.46801703614E+03 -0.94207138811E+02  0.90530614305E+03  0.10379899536E+04  0.17300000000E+03 0. -1.
       -6    1    1    2    0  501 -0.31704934580E+03  0.23338511833E+03 -0.30961637884E+03  0.52988697207E+03  0.17300000000E+03 0.  1.
        6    1    1    2  502    0 -0.38910777407E+03 -0.24933184867E+03  0.34854211544E+03  0.60413726655E+03  0.17300000000E+03 0. -1.
       -6    1    1    2    0  503  0.23814008372E+03  0.11015386916E+03 -0.79659513951E+02  0.32422093166E+03  0.17300000000E+03 0.  1.
</event>
<event>
 6   0  0.4500850E-05  0.3200613E+03  0.7546771E-02  0.1095395E+00
       21   -1    0    0  501  503  0.00000000000E+00  0.00000000000E+00  0.80351297560E+03  0.80351297560E+03  0.00000000000E+00 0.  1.
       21   -1    0    0  502  504  0.00000000000E+00  0.00000000000E+00 -0.78878807337E+03  0.78878807337E+03  0.00000000000E+00 0. -1.
        6    1    1    2  501    0  0.60370249156E+02 -0.22367796242E+03  0.57663184257E+01  0.28920347212E+03  0.17300000000E+03 0.  1.
       -6    1    1    2    0  504  0.63541135253E+02 -0.23737421697E+03 -0.40009020836E+03  0.50038502133E+03  0.17300000000E+03 0. -1.
        6    1    1    2  502    0 -0.91655392535E+02  0.39234497843E+03  0.11517578367E+03  0.45335389513E+03  0.17300000000E+03 0. -1.
       -6    1    1    2    0  503 -0.32255991875E+02  0.68707200956E+02  0.29387300849E+03  0.34935866040E+03  0.17300000000E+03 0.  1.
</event>
<event>
 6   0  0.4500850E-05  0.3564064E+03  0.7546771E-02  0.1066671E+00
       21   -1    0    0  502  503  0.00000000000E+00  0.00000000000E+00  0.13329731422E+04  0.13329731422E+04  0.00000000000E+00 0.  1.
       21   -1    0    0  501  504  0.00000000000E+00  0.00000000000E+00 -0.78062137054E+03  0.78062137054E+03  0.00000000000E+00 0. -1.
        6    1    1    2  501    0  0.11237081266E+02  0.22787714192E+03  0.56176179816E+03  0.63052326022E+03  0.17300000000E+03 0. -1.
       -6    1    1    2    0  503 -0.28904719083E+03  0.62073184072E+02  0.20571538751E+03  0.39956123356E+03  0.17300000000E+03 0.  1.
        6    1    1    2  502    0  0.42538279299E+03 -0.37689015419E+03  0.17882766496E+03  0.62040715877E+03  0.17300000000E+03 0.  1.
       -6    1    1    2    0  504 -0.14757268343E+03  0.86939828192E+02 -0.39395307900E+03  0.46310286015E+03  0.17300000000E+03 0. -1.
</event>
<event>
 6   0  0.4500850E-05  0.2542924E+03  0.7546771E-02  0.1119425E+00
       21   -1    0    0  504  503  0.00000000000E+00  0.00000000000E+00  0.56356503869E+03  0.56356503869E+03  0.00000000000E+00 0. -1.
       21   -1    0    0  502  504  0.00000000000E+00  0.00000000000E+00 -0.13606154709E+04  0.13606154709E+04  0.00000000000E+00 0.  1.
        6    1    1    2  501    0 -0.15405467815E+03 -0.43351697366E+02  0.33373614273E+03  0.40855969758E+03  0.17300000000E+03 0. -1.
       -6    1    1    2    0  503 -0.11664562374E+02  0.21981717236E+03 -0.68923054951E+02  0.28833147380E+03  0.17300000000E+03 0.  1.
        6    1    1    2  502    0  0.63570025865E+02  0.24614014415E+02 -0.85692248449E+03  0.87686495102E+03  0.17300000000E+03 0.  1.
       -6    1    1    2    0  501  0.10214921466E+03 -0.20107948940E+03 -0.20494103552E+03  0.35042438721E+03  0.17300000000E+03 0.  1.
</event>
<event>
 6   0  0.4500850E-05  0.3085950E+03  0.7546771E-02  0.1090060E+00
       21   -1    0    0  501  503  0.00000000000E+00  0.00000000000E+00  0.21250397511E+04  0.21250397511E+04  0.00000000000E+00 0.  1.
       21   -1    0    0  503  504  0.00000000000E+00  0.00000000000E+00 -0.52337954965E+03  0.52337954965E+03  0.00000000000E+00 0.  1.
        6    1    1    2  501    0 -0.14429430604E+03  0.32016088047E+03  0.16423922111E+04  0.16884030950E+04  0.17300000000E+03 0.  1.
       -6    1    1    2    0  504 -0.95113581641E+02 -0.11677906196E+03 -0.22203863974E+03  0.31923987887E+03  0.17300000000E+03 0.  1.
        6    1    1    2  502    0  0.30840019595E+03 -0.23624823599E+03  0.11800875170E+03  0.44133771123E+03  0.17300000000E+03 0.  1.
       -6    1    1    2    0  502 -0.68992308276E+02  0.32866417483E+02  0.63297878392E+02  0.19943861564E+03  0.17300000000E+03 0. -1.
</event>
<event>
 6   0  0.4500850E-05  0.2920337E+03  0.7546771E-02  0.1093528E+00
       21   -1    0    0  502  503  0.00000000000E+00  0.00000000000E+00  0.69311091983E+03  0.69311091983E+03  0.00000000000E+00 0.  1.
       21   -1    0    0  501  504  0.00000000000E+00  0.00000000000E+00 -0.98119377853E+03  0.98119377853E+03  0.00000000000E+00 0. -1.
        6    1    1    2  501    0 -0.11115393199E+03  0.12617681916E+03  0.20171930809E+03  0.31447649442E+03  0.17300000000E+03 0.  1.
       -6    1    1    2    0  504  0.11547743493E+03  0.43689649771E+02 -0.55115231043E+03  0.59071286829E+03  0.17300000000E+03 0. -1.
        6    1    1    2  502    0 -0.27676957867E+03 -0.26489220511E+03 -0.27175269511E+02  0.42123244804E+03  0.17300000000E+03 0. -1.
       -6    1    1    2    0  503  0.27244607573E+03  0.95025736178E+02  0.88525413151E+02  0.34788288761E+03  0.17300000000E+03 0.  1.
</event>
<event>
 6   0  0.4500850E-05  0.2496777E+03  0.7546771E-02  0.1119281E+00
       21   -1    0    0  502  503  0.00000000000E+00  0.00000000000E+00  0.19358885527E+04  0.19358885527E+04  0.00000000000E+00 0.  1.
       21   -1    0    0  501  504  0.00000000000E+00  0.00000000000E+00 -0.62716716612E+03  0.62716716612E+03  0.00000000000E+00 0. -1.
        6    1    1    2  501    0  0.29800582067E+02  0.17621933138E+03  0.13644531920E+04  0.13869400998E+04  0.17300000000E+03 0.  1.
       -6    1    1    2    0  504  0.10245320940E+03  0.79972039094E+02  0.12150094866E+02  0.21672289210E+03  0.17300000000E+03 0. -1.
        6    1    1    2  502    0  0.64898630478E+02 -0.18910639338E+03 -0.43149741995E+03  0.50605541562E+03  0.17300000000E+03 0. -1.
       -6    1    1    2    0  503 -0.19715242194E+03 -0.67084977091E+02  0.36361551962E+03  0.45333731122E+03  0.17300000000E+03 0.  1.
</event>
<event>
 6   0  0.4500850E-05  0.2518992E+03  0.7546771E-02  0.1123826E+00
       21   -1    0    0  502  503  0.00000000000E+00  0.00000000000E+00  0.12277261259E+04  0.12277261259E+04  0.00000000000E+00 0.  1.
       21   -1    0    0  501  504  0.00000000000E+00  0.00000000000E+00 -0.21736568060E+03  0.21736568060E+03  0.00000000000E+00 0. -1.
        6    1    1    2  501    0 -0.59194128464E+02 -0.27237793111E+01  0.38978209486E+02  0.18697503746E+03  0.17300000000E+03 0. -1.
       -6    1    1    2    0  503 -0.21734028586E+03  0.44993925279E+02  0.33608967755E+03  0.43834521159E+03  0.17300000000E+03 0.  1.
        6    1    1    2  502    0  0.10635823133E+03 -0.14862125658E+03  0.34063235159E+03  0.42350885496E+03  0.17300000000E+03 0. -1.
       -6    1    1    2    0  504  0.17017618299E+03  0.10635111062E+03  0.29466020671E+03  0.39626270252E+03  0.17300000000E+03 0.  1.
</event>
<event>
 6   0  0.4500850E-05  0.2212395E+03  0.7546771E-02  0.1136534E+00
       21   -1    0    0  502  503  0.00000000000E+00  0.00000000000E+00  0.20657618821E+04  0.20657618821E+04  0.00000000000E+00 0.  1.
       21   -1    0    0  503  504  0.00000000000E+00  0.00000000000E+00 -0.11833425066E+04  0.11833425066E+04  0.00000000000E+00 0. -1.
        6    1    1    2  501    0  0.21673551128E+03 -0.59102161390E+02 -0.11998829764E+03  0.30788559385E+03  0.17300000000E+03 0. -1.
       -6    1    1    2    0  501 -0.16496596851E+03 -0.33687171886E+02  0.61617174575E+03  0.66177429428E+03  0.17300000000E+03 0. -1.
        6    1    1    2  502    0  0.37336319172E+01  0.96916549965E+02  0.13166216653E+04  0.13314760107E+04  0.17300000000E+03 0.  1.
       -6    1    1    2    0  504 -0.55503174687E+02 -0.41272166886E+01 -0.93038573796E+03  0.94796848983E+03  0.17300000000E+03 0. -1.
</event>
<event>
 6   0  0.4500850E-05  0.3282713E+03  0.7546771E-02  0.1073554E+00
       21   -1    0    0  501  503  0.00000000000E+00  0.00000000000E+00  0.16359536387E+04  0.16359536387E+04  0.00000000000E+00 0.  1.
       21   -1    0    0  503  504  0.00000000000E+00  0.00000000000E+00 -0.24274008775E+04  0.24274008775E+04  0.00000000000E+00 0.  1.
        6    1    1    2  501    0  0.10731582550E+03 -0.20842237761E+02  0.90057083969E+03  0.92353014167E+03  0.17300000000E+03 0.  1.
       -6    1    1    2    0  504 -0.67855456236E+02  0.59806646190E+02 -0.13187516931E+04  0.13331227348E+04  0.17300000000E+03 0.  1.
        6    1    1    2  502    0 -0.16469448083E+03 -0.50173665119E+03 -0.91017636199E+03  0.10664023392E+04  0.17300000000E+03 0.  1.
       -6    1    1    2    0  502  0.12523411157E+03  0.46277224276E+03  0.53690997664E+03  0.74029930055E+03  0.17300000000E+03 0.  1.
</event>
<event>
 6   0  0.4500850E-05  0.2992265E+03  0.7546771E-02  0.1085841E+00
       21   -1    0    0  504  503  0.00000000000E+00  0.00000000000E+00  0.14306226341E+04  0.14306226341E+04  0.00000000000E+00 0.  1.
       21   -1    0    0  501  504  0.00000000000E+00  0.00000000000E+00 -0.12337955035E+04  0.12337955035E+04  0.00000000000E+00 0.  1.
        6    1    1    2  501    0  0.41343967432E+03  0.78831192658E+02 -0.75448589247E+03  0.88109289135E+03  0.17300000000E+03 0.  1.
       -6    1    1    2    0  502 -0.74974364097E+01  0.88438679510E+02 -0.22882535256E+03  0.30027929259E+03  0.17300000000E+03 0.  1.
        6    1    1    2  502    0 -0.33220022902E+03 -0.21987533220E+03  0.19038607166E+03  0.47421304300E+03  0.17300000000E+03 0. -1.
       -6    1    1    2    0  503 -0.73742008891E+02  0.52605460035E+02  0.98975230398E+03  0.10088329106E+04  0.17300000000E+03 0.  1.
</event>
<event>
 6   0  0.4500850E-05  0.3039749E+03  0.7546771E-02  0.1103954E+00
       21   -1    0    0  504  503  0.00000000000E+00  0.00000000000E+00  0.40386742846E+03  0.40386742846E+03  0.00000000000E+00 0.  1.
       21   -1    0    0  501  504  0.00000000000E+00  0.00000000000E+00 -0.82194273588E+03  0.82194273588E+03  0.00000000000E+00 0.  1.
        6    1    1    2  501    0 -0.27296020311E+02  0.22531258925E+02  0.91893827262E+02  0.19906332119E+03  0.17300000000E+03 0.  1.
       -6    1    1    2    0  503 -0.28156102141E+03  0.11779940394E+03 -0.19432761223E+03  0.40105551887E+03  0.17300000000E+03 0.  1.
        6    1    1    2  502    0  0.22116035322E+03  0.29581239963E+02 -0.16898477843E+03  0.32904681572E+03  0.17300000000E+03 0.  1.
       -6    1    1    2    0  502  0.87696688499E+02 -0.16991190283E+03 -0.14665674402E+03  0.29664450857E+03  0.17300000000E+03 0.  1.
</event>
<event>
 6   0  0.4500850E-05  0.2763430E+03  0.7546771E-02  0.1100784E+00
       21   -1    0    0  504  503  0.00000000000E+00  0.00000000000E+00  0.87032487542E+03  0.87032487542E+03  0.00000000000E+00 0. -1.
       21   -1    0    0  501  504  0.00000000000E+00  0.00000000000E+00 -0.10690797860E+04  0.10690797860E+04  0.00000000000E+00 0.  1.
        6    1    1    2  501    0  0.39435472092E+01 -0.34139776237E+02 -0.38086927792E+03  0.41972786749E+03  0.17300000000E+03 0.  1.
       -6    1    1    2    0  502 -0.25621642535E+03 -0.24703455172E+03 -0.29989578880E+03  0.49652735121E+03  0.17300000000E+03 0.  1.
        6    1    1    2  502    0  0.11558266484E+01  0.92590625827E+02 -0.18256993763E+03  0.26802078661E+03  0.17300000000E+03 0. -1.
       -6    1    1    2    0  503  0.25111705149E+03  0.18858370213E+03  0.66458009377E+03  0.75512865612E+03  0.17300000000E+03 0. -1.
</event>
<event>
 6   0  0.4500850E-05  0.2663808E+03  0.7546771E-02  0.1111790E+00
       21   -1    0    0  502  503  0.00000000000E+00  0.00000000000E+00  0.12447588327E+04  0.12447588327E+04  0.00000000000E+00 0. -1.
       21   -1    0    0  501  504  0.00000000000E+00  0.00000000000E+00 -0.12884100427E+04  0.12884100427E+04  0.00000000000E+00 0. -1.
        6    1    1    2  501    0  0.97909552601E+02  0.30197645232E+03  0.92836655372E+03  0.99627783088E+03  0.17300000000E+03 0. -1.
       -6    1    1    2    0  503  0.80795650893E+00 -0.53445728302E+02  0.19281277661E+03  0.26450494417E+03  0.17300000000E+03 0. -1.
        6    1    1    2  502    0  0.86738251410E+02 -0.11269202977E+03 -0.48694969209E+03  0.53597763056E+03  0.17300000000E+03 0.  1.
       -6    1    1    2    0  504 -0.18545576052E+03 -0.13583869425E+03 -0.67788084819E+03  0.73640846974E+03  0.17300000000E+03 0. -1.
</event>
<event>
 6   0  0.4500850E-05  0.3176224E+03  0.7546771E-02  0.1084421E+00
       21   -1    0    0  504  503  0.00000000000E+00  0.00000000000E+00  0.56672380528E+03  0.56672380528E+03  0.00000000000E+00 0.  1.
       21   -1    0    0  501  504  0.00000000000E+00  0.00000000000E+00 -0.11451713044E+04  0.11451713044E+04  0.00000000000E+00 0. -1.
        6    1    1    2  501    0  0.87436135818E+02 -0.21874435706E+02 -0.47142590008E+03  0.51019108974E+03  0.17300000000E+03 0. -1.
       -6    1    1    2    0  502  0.32537868862E+03 -0.26094169865E+01 -0.27451007360E+03  0.45952462456E+03  0.17300000000E+03 0.  1.
        6    1    1    2  502    0  0.10134343884E+02  0.16748853136E+03  0.89311852939E+02  0.25702280082E+03  0.17300000000E+03 0.  1.
       -6    1    1    2    0  503 -0.42294916832E+03 -0.14300467867E+03  0.78176621606E+02  0.48515659459E+03  0.17300000000E+03 0. -1.
</event>
<event>
 6   0  0.4500850E-05  0.9416210E+03  0.7546771E-02  0.9833019E-01
       21   -1    0    0  504  503  0.00000000000E+00  0.00000000000E+00  0.73778939325E+03  0.73778939325E+03  0.00000000000E+00 0.  1.
       21   -1    0    0  501  504  0.00000000000E+00  0.00000000000E+00 -0.14681574443E+04  0.14681574443E+04  0.00000000000E+00 0.  1.
        6    1    1    2  501    0  0.87703469576E+01  0.92185177472E+02 -0.26050110896E+03  0.32613625021E+03  0.17300000000E+03 0.  1.
       -6    1    1    2    0  502 -0.47634171652E+03 -0.76219941826E+03 -0.23155305293E+03  0.94413727837E+03  0.17300000000E+03 0.  1.
        6    1    1    2  502    0  0.26938356121E+03  0.48437327501E+03 -0.12173349037E+03  0.59323942492E+03  0.17300000000E+03 0.  1.
       -6    1    1    2    0  503  0.19818780836E+03  0.18564096577E+03 -0.11658039878E+03  0.34243388403E+03  0.17300000000E+03 0.  1.
</event>
<event>
 6   0  0.4500850E-05  0.4939803E+03  0.7546771E-02  0.1034058E+00
       21   -1    0    0  501  503  0.00000000000E+00  0.00000000000E+00  0.65044681716E+03  0.65044681716E+03  0.00000000000E+00 0.  1.
       21   -1    0    0  502  504  0.00000000000E+00  0.00000000000E+00 -0.93997460469E+03  0.93997460469E+03  0.00000000000E+00 0.  1.
        6    1    1    2  501    0 -0.20487217321E+03  0.87240858637E+02 -0.52299023171E+03  0.59416441937E+03  0.17300000000E+03 0.  1.
       -6    1    1    2    0  504 -0.89551331359E+02 -0.29610752492E+03 -0.11454738542E+03  0.37249055125E+03  0.17300000000E+03 0. -1.
        6    1    1    2  502    0  0.14106821278E+03  0.40376903518E+02  0.11242350762E+03  0.25317697379E+03  0.17300000000E+03 0.  1.
       -6    1    1    2    0  503  0.15335529179E+03  0.16848976277E+03  0.23558632199E+03  0.37058947744E+03  0.17300000000E+03 0. -1.
</event>
<event>
 6   0  0.4500850E-05  0.6233873E+03  0.7546771E-02  0.9960937E-01
       21   -1    0    0  501  503  0.00000000000E+00  0.00000000000E+00  0.12020796360E+04  0.12020796360E+04  0.00000000000E+00 0. -1.
       21   -1    0    0  503  504  0.00000000000E+00  0.00000000000E+00 -0.83619690621E+03  0.83619690621E+03  0.00000000000E+00 0.  1.
        6    1    1    2  501    0 -0.24985030914E+03  0.32171609266E+03 -0.22103336057E+03  0.49468289615E+03  0.17300000000E+03 0.  1.
       -6    1    1    2    0  502 -0.21004792076E+03  0.24698008803E+03  0.63192672242E+00  0.36748971717E+03  0.17300000000E+03 0. -1.
        6    1    1    2  502    0  0.80059385180E+02 -0.36551380497E+03  0.58034648831E+03  0.71185735458E+03  0.17300000000E+03 0. -1.
       -6    1    1    2    0  504  0.37983884472E+03 -0.20318237572E+03  0.59376753250E+01  0.46424657430E+03  0.17300000000E+03 0.  1.
</event>
<event>
 6   0  0.4500850E-05  0.2236123E+03  0.7546771E-02  0.1136587E+00
       21   -1    0    0  504  503  0.00000000000E+00  0.00000000000E+00  0.86753107229E+03  0.86753107229E+03  0.00000000000E+00 0. -1.
       21   -1    0    0  501  504  0.00000000000E+00  0.00000000000E+00 -0.33947623567E+03  0.33947623567E+03  0.00000000000E+00 0. -1.
        6    1    1    2  501    0 -0.65942104030E+02  0.83883032184E+02  0.40387162433E+02  0.20723138532E+03  0.17300000000E+03 0.  1.
       -6    1    1    2    0  502 -0.90516997430E+02 -0.19145319670E+03 -0.44158359532E+01  0.27348885344E+03  0.17300000000E+03 0. -1.
        6    1    1    2  502    0  0.19419224283E+02  0.60802027332E+02  0.46355949813E+03  0.49888916716E+03  0.17300000000E+03 0. -1.
       -6    1    1    2    0  503  0.13703987718E+03  0.46768137186E+02  0.28524012005E+02  0.22739790204E+03  0.17300000000E+03 0. -1.
</event>
<event>
 6   0  0.4500850E-05  0.2432431E+03  0.7546771E-02  0.1122388E+00
       21   -1    0    0  504  503  0.00000000000E+00  0.00000000000E+00  0.42895252604E+03  0.42895252604E+03  0.00000000000E+00 0.  1.
       21   -1    0    0  501  504  0.00000000000E+00  0.00000000000E+00 -0.67062655332E+03  0.67062655332E+03  0.00000000000E+00 0. -1.
        6    1    1    2  501    0  0.57892249922E+02 -0.16460034949E+03  0.19798559502E+02  0.24650714110E+03  0.17300000000E+03 0.  1.
       -6    1    1    2    0  502  0.12457866704E+03  0.35163648661E+02 -0.25453659704E+03  0.33387753099E+03  0.17300000000E+03 0. -1.
        6    1    1    2  502    0 -0.20350885500E+03 -0.46083079245E+02  0.10344221909E+02  0.27124805471E+03  0.17300000000E+03 0.  1.
       -6    1    1    2    0  503  0.21037938045E+02  0.17551978007E+03 -0.17280211645E+02  0.24794635256E+03  0.17300000000E+03 0. -1.
</event>
<event>
 6   0  0.4500850E-05  0.2287345E+03  0.7546771E-02  0.1130787E+00
       21   -1    0    0  502  503  0.00000000000E+00  0.00000000000E+00  0.64528763602E+03  0.64528763602E+03  0.00000000000E+00 0. -1.
       21   -1    0    0  501  504  0.00000000000E+00  0.00000000000E+00 -0.12458272454E+04  0.12458272454E+04  0.00000000000E+00 0. -1.
        6    1    1    2  501    0 -0.10617510997E+03 -0.73110365464E+01  0.46834270564E+02  0.20844436700E+03  0.17300000000E+03 0.  1.
       -6    1    1    2    0  503  0.10752537940E+03  0.18401439981E+03  0.31297015022E+03  0.41629595420E+03  0.17300000000E+03 0. -1.
        6    1    1    2  502    0 -0.98794961479E+02 -0.24454566416E+02  0.64971706743E+02  0.21097107126E+03  0.17300000000E+03 0. -1.
       -6    1    1    2    0  504  0.97444692054E+02 -0.15224879685E+03 -0.10253157369E+04  0.10554034889E+04  0.17300000000E+03 0. -1.
</event>
<event>
 6   0  0.4500850E-05  0.6730305E+03  0.7546771E-02  0.1009268E+00
       21   -1    0    0  502  503  0.00000000000E+00  0.00000000000E+00  0.60465215112E+03  0.60465215112E+03  0.00000000000E+00 0. -1.
       21   -1    0    0  501  504  0.00000000000E+00  0.00000000000E+00 -0.22893599691E+04  0.22893599691E+04  0.00000000000E+00 0.  1.
        6    1    1    2  501    0  0.15941155851E+03  0.12110504383E+02  0.19698976112E+03  0.30707112416E+03  0.17300000000E+03 0.  1.
       -6    1    1    2    0  503 -0.24950907968E+03  0.25627794059E+02 -0.68487263211E+02  0.31229964761E+03  0.17300000000E+03 0. -1.
        6    1    1    2  502    0  0.57818458718E+03 -0.40664910180E+03 -0.83101882156E+03  0.11046185725E+04  0.17300000000E+03 0.  1.
       -6    1    1    2    0  504 -0.48808706600E+03  0.36891080335E+03 -0.98219149434E+03  0.11700227760E+04  0.17300000000E+03 0. -1.
</event>
<event>
 6   0  0.4500850E-05  0.2937123E+03  0.7546771E-02  0.1097740E+00
       21   -1    0    0  504  503  0.00000000000E+00  0.00000000000E+00  0.46971513305E+03  0.46971513305E+03  0.00000000000E+00 0.  1.
       21   -1    0    0  502  504  0.00000000000E+00  0.00000000000E+00 -0.19440139643E+04  0.19440139643E+04  0.00000000000E+00 0. -1.
        6    1    1    2  501    0  0.27218813898E+02 -0.90823357255E+02  0.18847616070E+03  0.27284062968E+03  0.17300000000E+03 0.  1.
       -6    1    1    2    0  501 -0.12281184302E+03 -0.12575578910E+03 -0.38036730505E+03  0.45332720416E+03  0.17300000000E+03 0. -1.
        6    1    1    2  502    0  0.74962907933E+02 -0.16925544796E+03 -0.12359724012E+04  0.12616749267E+04  0.17300000000E+03 0. -1.
       -6    1    1    2    0  503  0.20630121187E+02  0.38583459431E+03 -0.46435285653E+02  0.42588633674E+03  0.17300000000E+03 0.  1.
</event>
<event>
 6   0  0.4500850E-05  0.2284723E+03  0.7546771E-02  0.1138727E+00
       21   -1    0    0  501  503  0.00000000000E+00  0.00000000000E+00  0.80627948922E+03  0.80627948922E+03  0.00000000000E+00 0. -1.
       21   -1    0    0  503  504  0.00000000000E+00  0.00000000000E+00 -0.44504892606E+03  0.44504892606E+03  0.00000000000E+00 0.  1.
        6    1    1    2  501    0  0.13209312870E+03  0.92970557314E+02  0.57416865200E+03  0.62104006321E+03  0.17300000000E+03 0. -1.
       -6    1    1    2    0  502 -0.86765434198E+02 -0.51980861616E+02  0.16920949724E+02  0.20111083781E+03  0.17300000000E+03 0.  1.
        6    1    1    2  502    0 -0.25063647040E+02 -0.53408314031E+02 -0.81877592139E+02  0.20028373500E+03  0.17300000000E+03 0.  1.
       -6    1    1    2    0  504 -0.20264047465E+02  0.12418618334E+02 -0.14798144641E+03  0.22889377926E+03  0.17300000000E+03 0.  1.
</event>
<event>
 6   0  0.4500850E-05  0.5675211E+03  0.7546771E-02  0.9988660E-01
       -3   -1    0    0    0  501  0.00000000000E+00  0.00000000000E+00  0.11979501271E+04  0.11979501271E+04  0.00000000000E+00 0. -1.
        3   -1    0    0  502    0  0.00000000000E+00  0.00000000000E+00 -0.29171144475E+03  0.29171144475E+03  0.00000000000E+00 0.  1.
        6    1    1    2  502    0 -0.17364661040E+03  0.13703974205E+03  0.26936744988E+03  0.38912833264E+03  0.17300000000E+03 0.  1.
       -6    1    1    2    0  501 -0.11096521655E+03  0.15287897579E+02 -0.61794814822E+02  0.21516179548E+03  0.17300000000E+03 0.  1.
        6    1    1    2  503    0  0.87950125223E+02 -0.11001393166E+03  0.51907645723E+03  0.56498465301E+03  0.17300000000E+03 0. -1.
       -6    1    1    2    0  503  0.19666170173E+03 -0.42313707964E+02  0.17958959003E+03  0.32038679070E+03  0.17300000000E+03 0.  1.
</event>
<event>
 6   0  0.4500850E-05  0.5271023E+03  0.7546771E-02  0.1033296E+00
       21   -1    0    0  501  503  0.00000000000E+00  0.00000000000E+00  0.30553222019E+03  0.30553222019E+03  0.00000000000E+00 0.  1.
       21   -1    0    0  502  504  0.00000000000E+00  0.00000000000E+00 -0.15389849567E+04  0.15389849567E+04  0.00000000000E+00 0.  1.
        6    1    1    2  501    0 -0.26393376396E+03 -0.30756470758E+03 -0.60229255135E+03  0.74628573517E+03  0.17300000000E+03 0.  1.
       -6    1    1    2    0  504  0.82653563341E+02  0.21206313041E+03 -0.21619934004E+03  0.35843205416E+03  0.17300000000E+03 0.  1.
        6    1    1    2  502    0  0.21892533769E+03  0.21779934528E+03 -0.38424894023E+03  0.52243765786E+03  0.17300000000E+03 0.  1.
       -6    1    1    2    0  503 -0.37645137078E+02 -0.12229776811E+03 -0.30711904865E+02  0.21736172968E+03  0.17300000000E+03 0.  1.
</event>
<event>
 6   0  0.4500850E-05  0.6006209E+03  0.7546771E-02  0.1026886E+00
       21   -1    0    0  502  503  0.00000000000E+00  0.00000000000E+00  0.52059486959E+03  0.52059486959E+03  0.00000000000E+00 0. -1.
       21   -1    0    0  503  504  0.00000000000E+00  0.00000000000E+00 -0.98555239722E+03  0.98555239722E+03  0.00000000000E+00 0. -1.
        6    1    1    2  501    0 -0.15037592826E+03  0.25338766174E+03 -0.16887536301E+03  0.38113792143E+03  0.17300000000E+03 0. -1.
       -6    1    1    2    0  504 -0.27776449714E+03  0.59125451518E+02 -0.83089376624E+02  0.34275615150E+03  0.17300000000E+03 0. -1.
        6    1    1    2  502    0  0.40414116501E+03 -0.30081617727E+03 -0.36899721146E+02  0.53395790394E+03  0.17300000000E+03 0. -1.
       -6    1    1    2    0  501  0.23999260384E+02 -0.11696935986E+02 -0.17609306685E+03  0.24829528994E+03  0.17300000000E+03 0.  1.
</event>
<event>
 6   0  0.4500850E-05  0.3283913E+03  0.7546771E-02  0.1079727E+00
       21   -1    0    0  504  503  0.00000000000E+00  0.00000000000E+00  0.10497188692E+04  0.10497188692E+04  0.00000000000E+00 0. -1.
       21   -1    0    0  502  504  0.00000000000E+00  0.00000000000E+00 -0.76763755861E+03  0.76763755861E+03  0.00000000000E+00 0. -1.
        6    1    1    2  501    0 -0.28673375497E+02 -0.17328939157E+03  0.34447234249E+02  0.24893169272E+03  0.17300000000E+03 0. -1.
       -6    1    1    2    0  503  0.79066773455E+02 -0.18554505200E+03  0.61388360046E+03  0.66892495535E+03  0.17300000000E+03 0.  1.
        6    1    1    2  502    0  0.20699889652E+02 -0.13087849762E+03 -0.30047130395E+03  0.37117337064E+03  0.17300000000E+03 0. -1.
       -6    1    1    2    0  501 -0.71093287610E+02  0.48971294120E+03 -0.65778220156E+02  0.52832640911E+03  0.17300000000E+03 0. -1.
</event>
<event>
 6   0  0.4500850E-05  0.4649272E+03  0.7546771E-02  0.1049342E+00
       21   -1    0    0  502  503  0.00000000000E+00  0.00000000000E+00  0.13247425626E+04  0.13247425626E+04  0.00000000000E+00 0.  1.
       21   -1    0    0  501  504  0.00000000000E+00  0.00000000000E+00 -0.34515014462E+03  0.34515014462E+03  0.00000000000E+00 0.  1.
        6    1    1    2  501    0 -0.15794939530E+03  0.16488350369E+03  0.18522666058E+03  0.34113413352E+03  0.17300000000E+03 0.  1.
       -6    1    1    2    0  504  0.12223822232E+03 -0.15919851210E+03  0.49270149148E+02  0.26952346252E+03  0.17300000000E+03 0.  1.
        6    1    1    2  502    0  0.33294506634E+02 -0.13685664872E+03 -0.55363061813E+02  0.22985285529E+03  0.17300000000E+03 0.  1.
       -6    1    1    2    0  503  0.24166663456E+01  0.13117165713E+03  0.80045867011E+03  0.82938225594E+03  0.17300000000E+03 0.  1.
</event>
<event>
 6   0  0.4500850E-05  0.2574292E+03  0.7546771E-02  0.1109998E+00
       21   -1    0    0  504  503  0.00000000000E+00  0.00000000000E+00  0.94564000586E+03  0.94564000586E+03  0.00000000000E+00 0.  1.
       21   -1    0    0  501  504  0.00000000000E+00  0.00000000000E+00 -0.84075940167E+03  0.84075940167E+03  0.00000000000E+00 0.  1.
        6    1    1    2  501    0 -0.72847208776E+02 -0.29004671785E+03 -0.21351752645E+03  0.40614350723E+03  0.17300000000E+03 0.  1.
       -6    1    1    2    0  502 -0.48421703721E+02  0.76649951779E+02 -0.18824644371E+03  0.27126665860E+03  0.17300000000E+03 0.  1.
        6    1    1    2  502    0  0.27909126833E+02  0.26345576703E+03 -0.19965355389E+03  0.37413687619E+03  0.17300000000E+03 0.  1.
       -6    1    1    2    0  503  0.93359785665E+02 -0.50059000961E+02  0.70629812823E+03  0.73485236551E+03  0.17300000000E+03 0.  1.
</event>
<event>
 6   0  0.4500850E-05  0.2747281E+03  0.7546771E-02  0.1098993E+00
       21   -1    0    0  501  503  0.00000000000E+00  0.00000000000E+00  0.85841468301E+03  0.85841468301E+03  0.00000000000E+00 0.  1.
       21   -1    0    0  503  504  0.00000000000E+00  0.00000000000E+00 -0.16245596027E+04  0.16245596027E+04  0.00000000000E+00 0.  1.
        6    1    1    2  501    0  0.90714722408E+02 -0.10077811733E+03  0.65782769229E+03  0.69357887983E+03  0.17300000000E+03 0.  1.
       -6    1    1    2    0  502  0.89914206613E+02 -0.31433195674E+03 -0.37068511614E+03  0.52366554107E+03  0.17300000000E+03 0.  1.
        6    1    1    2  502    0 -0.13532286274E+03  0.29393032797E+03 -0.27644460734E+03  0.45941042196E+03  0.17300000000E+03 0.  1.
       -6    1    1    2    0  504 -0.45306066284E+02  0.12117974611E+03 -0.77684288847E+03  0.80631944283E+03  0.17300000000E+03 0. -1.
</event>
<event>
 6   0  0.4500850E-05  0.6972558E+03  0.7546771E-02  0.1010058E+00
       21   -1    0    0  501  503  0.00000000000E+00  0.00000000000E+00  0.35503675429E+03  0.35503675429E+03  0.00000000000E+00 0. -1.
       21   -1    0    0  502  504  0.00000000000E+00  0.00000000000E+00 -0.23802039077E+04  0.23802039077E+04  0.00000000000E+00 0. -1.
        6    1    1    2  501    0  0.14737824617E+03 -0.37682459037E+02 -0.15536944386E+03  0.27786503784E+03  0.17300000000E+03 0.  1.
       -6    1    1    2    0  503  0.41934374230E+03  0.33955191668E+03 -0.27452562159E+03  0.62963322279E+03  0.17300000000E+03 0. -1.
        6    1    1    2  502    0 -0.55047586001E+03 -0.23278336572E+03 -0.14863800905E+04  0.16113554981E+04  0.17300000000E+03 0. -1.
       -6    1    1    2    0  504 -0.16246128464E+02 -0.69086091927E+02 -0.10889199742E+03  0.21638690323E+03  0.17300000000E+03 0. -1.
</event>
<event>
 6   0  0.4500850E-05  0.3236881E+03  0.7546771E-02  0.1075740E+00
       21   -1    0    0  501  503  0.00000000000E+00  0.00000000000E+00  0.79051994637E+03  0.79051994637E+03  0.00000000000E+00 0.  1.
       21   -1    0    0  502  504  0.00000000000E+00  0.00000000000E+00 -0.98711918819E+03  0.98711918819E+03  0.00000000000E+00 0.  1.
        6    1    1    2  501    0  0.17975567236E+03  0.19497782000E+03 -0.55473823458E+02  0.32145730218E+03  0.17300000000E+03 0.  1.
       -6    1    1    2    0  504  0.13933240185E+03 -0.22694626047E+03  0.16839827016E+03  0.35945111036E+03  0.17300000000E+03 0.  1.
        6    1    1    2  502    0  0.68069160835E+01 -0.22337794695E+03 -0.52707587260E+03  0.59806522785E+03  0.17300000000E+03 0.  1.
       -6    1    1    2    0  503 -0.32589499030E+03  0.25534638742E+03  0.21755218407E+03  0.49866549416E+03  0.17300000000E+03 0.  1.
</event>
<event>
 6   0  0.4500850E-05  0.1951990E+03  0.7546771E-02  0.1155372E+00
       21   -1    0    0  501  503  0.00000000000E+00  0.00000000000E+00  0.27490849790E+03  0.27490849790E+03  0.00000000000E+00 0.  1.
       21   -1    0    0  502  504  0.00000000000E+00  0.00000000000E+00 -0.11067952089E+04  0.11067952089E+04  0.00000000000E+00 0.  1.
        6    1    1    2  501    0 -0.12361579451E+03  0.48991352152E+02 -0.52767251583E+03  0.57100639331E+03  0.17300000000E+03 0.  1.
       -6    1    1    2    0  504 -0.33370153249E+01  0.20899952314E+02  0.12040941035E+03  0.21183807443E+03  0.17300000000E+03 0.  1.
        6    1    1    2  502    0  0.11576467193E+03 -0.78439835224E+01 -0.33400347341E+03  0.39363727922E+03  0.17300000000E+03 0. -1.
       -6    1    1    2    0  503  0.11188137905E+02 -0.62047320943E+02 -0.90620132158E+02  0.20522195988E+03  0.17300000000E+03 0.  1.
</event>
<event>
 6   0  0.4500850E-05  0.1935761E+03  0.7546771E-02  0.1156264E+00
       21   -1    0    0  501  503  0.00000000000E+00  0.00000000000E+00  0.15103122793E+03  0.15103122793E+03  0.00000000000E+00 0.  1.
       21   -1    0    0  502  504  0.00000000000E+00  0.00000000000E+00 -0.14914744251E+04  0.14914744251E+04  0.00000000000E+00 0. -1.
        6    1    1    2  501    0 -0.65519972570E+02 -0.63432483839E+01 -0.46929187140E+03  0.50447692134E+03  0.17300000000E+03 0. -1.
       -6    1    1    2    0  504  0.84662393072E+02 -0.12316414927E+03 -0.11346053458E+03  0.25522425702E+03  0.17300000000E+03 0. -1.
        6    1    1    2  502    0  0.24282322042E+02  0.86674850627E+02 -0.62949589315E+03  0.65901156316E+03  0.17300000000E+03 0. -1.
       -6    1    1    2    0  503 -0.43424742544E+02  0.42832547026E+02 -0.12819489802E+03  0.22379291148E+03  0.17300000000E+03 0.  1.
</event>
<event>
 6   0  0.4500850E-05  0.2933280E+03  0.7546771E-02  0.1107909E+00
       21   -1    0    0  502  503  0.00000000000E+00  0.00000000000E+00  0.10110709237E+04  0.10110709237E+04  0.00000000000E+00 0. -1.
       21   -1    0    0  501  504  0.00000000000E+00  0.00000000000E+00 -0.88483725357E+03  0.88483725357E+03  0.00000000000E+00 0.  1.
        6    1    1    2  501    0  0.70989739132E+02  0.51954895564E+02  0.42291364695E+03  0.46532118694E+03  0.17300000000E+03 0. -1.
       -6    1    1    2    0  503  0.21413175925E+02 -0.33726742903E+02  0.42374688700E+03  0.45944144517E+03  0.17300000000E+03 0.  1.
        6    1    1    2  502    0 -0.28523046143E+02  0.22112081758E+03 -0.13606922119E+03  0.31329189757E+03  0.17300000000E+03 0. -1.
       -6    1    1    2    0  504 -0.63879868914E+02 -0.23934897024E+03 -0.58435764261E+03  0.65785364762E+03  0.17300000000E+03 0.  1.
</event>
<event>
 6   0  0.4500850E-05  0.2133453E+03  0.7546771E-02  0.1144549E+00
       21   -1    0    0  502  503  0.00000000000E+00  0.00000000000E+00  0.43111755051E+03  0.43111755051E+03  0.00000000000E+00 0. -1.
       21   -1    0    0  501  504  0.00000000000E+00  0.00000000000E+00 -0.53371129161E+03  0.53371129161E+03  0.00000000000E+00 0. -1.
        6    1    1    2  501    0 -0.10477667974E+03 -0.50591191683E+02  0.39890749516E+02  0.21226844605E+03  0.17300000000E+03 0. -1.
       -6    1    1    2    0  504  0.35564035986E+02 -0.39233193138E+02 -0.54229460561E+02  0.18887529879E+03  0.17300000000E+03 0.  1.
        6    1    1    2  502    0 -0.87021529798E+02  0.13787392728E+03 -0.19051347349E+03  0.30464134659E+03  0.17300000000E+03 0. -1.
       -6    1    1    2    0  503  0.15623417355E+03 -0.48049542461E+02  0.10225844344E+03  0.25904375069E+03  0.17300000000E+03 0. -1.
</event>
<event>
 6   0  0.4500850E-05  0.3114842E+03  0.7546771E-02  0.1084293E+00
       21   -1    0    0  501  503  0.00000000000E+00  0.00000000000E+00  0.97264802008E+03  0.97264802008E+03  0.00000000000E+00 0. -1.
       21   -1    0    0  503  504  0.00000000000E+00  0.00000000000E+00 -0.71903623221E+03  0.71903623221E+03  0.00000000000E+00 0.  1.
        6    1    1    2  501    0 -0.23453195832E+02  0.77471672261E+02  0.30922942799E+03  0.36346079780E+03  0.17300000000E+03 0. -1.
       -6    1    1    2    0  504 -0.48593459396E+02 -0.12529255955E+03 -0.22954164833E+03  0.31729783815E+03  0.17300000000E+03 0.  1.
        6    1    1    2  502    0 -0.94100403785E+02  0.44685382543E+03 -0.56258048539E+02  0.49155589236E+03  0.17300000000E+03 0.  1.
       -6    1    1    2    0  502  0.16614705901E+03 -0.39903293813E+03  0.23018205674E+03  0.51936972397E+03  0.17300000000E+03 0.  1.
</event>
<event>
 6   0  0.4500850E-05  0.2136561E+03  0.7546771E-02  0.1144744E+00
       21   -1    0    0  502  503  0.00000000000E+00  0.00000000000E+00  0.72213281931E+03  0.72213281931E+03  0.00000000000E+00 0.  1.
       21   -1    0    0  501  504  0.00000000000E+00  0.00000000000E+00 -0.57144451520E+03  0.57144451520E+03  0.00000000000E+00 0. -1.
        6    1    1    2  501    0 -0.10436981226E+03 -0.33378532488E+02  0.26933654744E+03  0.33834650867E+03  0.17300000000E+03 0.  1.
       -6    1    1    2    0  503 -0.27493783506E+02  0.80312341056E+02  0.44877956979E+02  0.19786109087E+03  0.17300000000E+03 0.  1.
        6    1    1    2  502    0  0.61938900133E+01 -0.64592860592E+02  0.23848536709E+03  0.30168671205E+03  0.17300000000E+03 0.  1.
       -6    1    1    2    0  504  0.12566970575E+03  0.17659052024E+02 -0.40201156739E+03  0.45568302292E+03  0.17300000000E+03 0. -1.
</event>
<event>
 6   0  0.4500850E-05  0.3408132E+03  0.7546771E-02  0.1080543E+00
       21   -1    0    0  501  503  0.00000000000E+00  0.00000000000E+00  0.11283028100E+04  0.11283028100E+04  0.00000000000E+00 0. -1.
       21   -1    0    0  503  504  0.00000000000E+00  0.00000000000E+00 -0.12399971771E+04  0.12399971771E+04  0.00000000000E+00 0.  1.
        6    1    1    2  501    0  0.19798187616E+03 -0.14602855390E+03  0.63817989562E+03  0.70549538696E+03  0.17300000000E+03 0. -1.
       -6    1    1    2    0  502 -0.21642527428E+03 -0.24802211257E+03  0.29137239198E+03  0.47242114525E+03  0.17300000000E+03 0.  1.
        6    1    1    2  502    0 -0.14837735434E+02  0.29161275045E+03 -0.44095161573E+03  0.55644000758E+03  0.17300000000E+03 0. -1.
       -6    1    1    2    0  504  0.33281133552E+02  0.10243791601E+03 -0.60029503897E+03  0.63394344725E+03  0.17300000000E+03 0.  1.
</event>
<event>
 6   0  0.4500850E-05  0.3020886E+03  0.7546771E-02  0.1093565E+00
       21   -1    0    0  502  503  0.00000000000E+00  0.00000000000E+00  0.40092748988E+03  0.40092748988E+03  0.00000000000E+00 0. -1.
       21   -1    0    0  501  504  0.00000000000E+00  0.00000000000E+00 -0.95833327261E+03  0.95833327261E+03  0.00000000000E+00 0.  1.
        6    1    1    2  501    0  0.86446389158E+02 -0.21439694792E+03 -0.25516102894E+03  0.38532477232E+03  0.17300000000E+03 0.  1.
       -6    1    1    2    0  503  0.15600922186E+03  0.10087480662E+02 -0.47898883512E+02  0.23804188205E+03  0.17300000000E+03 0.  1.
        6    1    1    2  502    0 -0.34020135602E+03 -0.29993264759E+02 -0.15484211996E+03  0.41296687601E+03  0.17300000000E+03 0. -1.
       -6    1    1    2    0  504  0.97745745011E+02  0.23430273202E+03 -0.99503750323E+02  0.32292723209E+03  0.17300000000E+03 0.  1.
</event>
<event>
 6   0  0.4500850E-05  0.4781442E+03  0.7546771E-02  0.1019646E+00
        2   -1    0    0  502    0  0.00000000000E+00  0.00000000000E+00  0.23687793766E+04  0.23687793766E+04  0.00000000000E+00 0.  1.
       -2   -1    0    0    0  501  0.00000000000E+00  0.00000000000E+00 -0.21705394122E+03  0.21705394122E+03  0.00000000000E+00 0. -1.
        6    1    1    2  502    0  0.81653851495E+02  0.20703604549E+03  0.91765599286E+03  0.95997541470E+03  0.17300000000E+03 0.  1.
       -6    1    1    2    0  501  0.22177098898E+03  0.25909519577E+02 -0.47129449228E+01  0.28249758691E+03  0.17300000000E+03 0. -1.
        6    1    1    2  503    0 -0.15308844578E+03 -0.83408886956E+02  0.56030195332E+03  0.61176825151E+03  0.17300000000E+03 0.  1.
       -6    1    1    2    0  503 -0.15033639470E+03 -0.14953667811E+03  0.67848043414E+03  0.73159206473E+03  0.17300000000E+03 0. -1.
</event>
<event>
 6   0  0.4500850E-05  0.1988525E+03  0.7546771E-02  0.1153557E+00
       21   -1    0    0  502  503  0.00000000000E+00  0.00000000000E+00  0.12708559170E+04  0.12708559170E+04  0.00000000000E+00 0. -1.
       21   -1    0    0  503  504  0.00000000000E+00  0.00000000000E+00 -0.60389550470E+03  0.60389550470E+03  0.00000000000E+00 0.  1.
        6    1    1    2  501    0 -0.10195245747E+03  0.70637251575E+02  0.14868717168E+03  0.25965515577E+03  0.17300000000E+03 0. -1.
       -6    1    1    2    0  504  0.29005477719E+02 -0.34072636278E+02 -0.48359163248E+03  0.51555031693E+03  0.17300000000E+03 0.  1.
        6    1    1    2  502    0  0.13231594363E+02  0.83666949785E+02  0.70383979141E+03  0.72972233455E+03  0.17300000000E+03 0. -1.
       -6    1    1    2    0  501  0.59715385384E+02 -0.12023156508E+03  0.29802508167E+03  0.36982361444E+03  0.17300000000E+03 0. -1.
</event>
<event>
 6   0  0.4500850E-05  0.1956241E+03  0.7546771E-02  0.1155522E+00
       21   -1    0    0  504  503  0.00000000000E+00  0.00000000000E+00  0.10013314369E+04  0.10013314369E+04  0.00000000000E+00 0. -1.
       21   -1    0    0  501  504  0.00000000000E+00  0.00000000000E+00 -0.10459752166E+04  0.10459752166E+04  0.00000000000E+00 0. -1.
        6    1    1    2  501    0  0.42473591336E+02 -0.10060430874E+03  0.97255084605E+00  0.20458538255E+03  0.17300000000E+03 0. -1.
       -6    1    1    2    0  503 -0.40973859606E+01  0.16419986480E+02  0.28450632725E+03  0.33340554101E+03  0.17300000000E+03 0. -1.
        6    1    1    2  502    0  0.11764635412E+02  0.11275333477E+03  0.56194290143E+03  0.59879925319E+03  0.17300000000E+03 0. -1.
       -6    1    1    2    0  502 -0.50140840787E+02 -0.28569012510E+02 -0.89206555922E+03  0.91051647670E+03  0.17300000000E+03 0. -1.
</event>
<event>
 6   0  0.4500850E-05  0.3513449E+03  0.7546771E-02  0.1081762E+00
       21   -1    0    0  504  503  0.00000000000E+00  0.00000000000E+00  0.11708189693E+04  0.11708189693E+04  0.00000000000E+00 0. -1.
       21   -1    0    0  502  504  0.00000000000E+00  0.00000000000E+00 -0.76324868446E+03  0.76324868446E+03  0.00000000000E+00 0.  1.
        6    1    1    2  501    0 -0.26904717354E+03 -0.18344817383E+03  0.19389284742E+03  0.41660898977E+03  0.17300000000E+03 0. -1.
       -6    1    1    2    0  501  0.48757440719E+03  0.22596236027E+03 -0.16192328482E+03  0.58731247302E+03  0.17300000000E+03 0.  1.
        6    1    1    2  502    0 -0.25433471251E+03 -0.24346183952E+02 -0.17283868806E+03  0.35366805729E+03  0.17300000000E+03 0.  1.
       -6    1    1    2    0  503  0.35807478863E+02 -0.18168002484E+02  0.54843941031E+03  0.57647813371E+03  0.17300000000E+03 0. -1.
</event>
<event>
 6   0  0.4500850E-05  0.2863852E+03  0.7546771E-02  0.1108735E+00
       21   -1    0    0  504  503  0.00000000000E+00  0.00000000000E+00  0.11933513452E+04  0.11933513452E+04  0.00000000000E+00 0. -1.
       21   -1    0    0  502  504  0.00000000000E+00  0.00000000000E+00 -0.25560495916E+03  0.25560495916E+03  0.00000000000E+00 0. -1.
        6    1    1    2  501    0  0.49084048575E+02  0.20529366177E+03  0.25127846501E+03  0.37097789471E+03  0.17300000000E+03 0.  1.
       -6    1    1    2    0  503 -0.14371094215E+03  0.94130606231E+02  0.20967952344E+03  0.32157100067E+03  0.17300000000E+03 0. -1.
        6    1    1    2  502    0 -0.34139061050E+02 -0.61624679443E+02  0.63880443148E+01  0.18690340745E+03  0.17300000000E+03 0.  1.
       -6    1    1    2    0  501  0.12876595463E+03 -0.23779958856E+03  0.47040035325E+03  0.56950400150E+03  0.17300000000E+03 0. -1.
</event>
<event>
 6   0  0.4500850E-05  0.4581323E+03  0.7546771E-02  0.1028932E+00
       -4   -1    0    0    0  501  0.00000000000E+00  0.00000000000E+00  0.11406176579E+03  0.11406176579E+03  0.00000000000E+00 0.  1.
        4   -1    0    0  502    0  0.00000000000E+00  0.00000000000E+00 -0.19210108020E+04  0.19210108020E+04  0.00000000000E+00 0. -1.
        6    1    1    2  502    0 -0.11999876882E+03  0.11303361052E+03 -0.38405028041E+03  0.45232722614E+03  0.17300000000E+03 0.  1.
       -6    1    1    2    0  503  0.11472214802E+03  0.83165238334E+01 -0.18462821691E+03  0.27793329109E+03  0.17300000000E+03 0.  1.
        6    1    1    2  503    0 -0.38580393572E+02  0.14080605436E+02 -0.68979469193E+03  0.71234291408E+03  0.17300000000E+03 0.  1.
       -6    1    1    2    0  501  0.43857014370E+02 -0.13543073979E+03 -0.54847584701E+03  0.59246913653E+03  0.17300000000E+03 0. -1.
</event>
<event>
 6   0  0.4500850E-05  0.2592930E+03  0.7546771E-02  0.1114594E+00
       21   -1    0    0  502  503  0.00000000000E+00  0.00000000000E+00  0.41941554194E+03  0.41941554194E+03  0.00000000000E+00 0. -1.
       21   -1    0    0  503  504  0.00000000000E+00  0.00000000000E+00 -0.90515205662E+03  0.90515205662E+03  0.00000000000E+00 0. -1.
        6    1    1    2  501    0 -0.21168243921E+03 -0.27690481385E+02 -0.13462907767E+03  0.30599053316E+03  0.17300000000E+03 0.  1.
       -6    1    1    2    0  504 -0.14284440660E+03 -0.53885346752E+02 -0.33359495093E+03  0.40561403622E+03  0.17300000000E+03 0. -1.
        6    1    1    2  502    0  0.28285949899E+03  0.97052057175E+02 -0.15647375717E+03  0.37926459715E+03  0.17300000000E+03 0.  1.
       -6    1    1    2    0  501  0.71667346832E+02 -0.15476229038E+02  0.13896127109E+03  0.23369843202E+03  0.17300000000E+03 0. -1.
</event>
<event>
 6   0  0.4500850E-05  0.2187826E+03  0.7546771E-02  0.1135129E+00
       21   -1    0    0  501  503  0.00000000000E+00  0.00000000000E+00  0.66068568220E+03  0.66068568220E+03  0.00000000000E+00 0. -1.
       21   -1    0    0  503  504  0.00000000000E+00  0.00000000000E+00 -0.44486215636E+03  0.44486215636E+03  0.00000000000E+00 0. -1.
        6    1    1    2  501    0  0.65814734602E+02  0.62901147169E+02  0.81512575916E+02  0.21180517850E+03  0.17300000000E+03 0. -1.
       -6    1    1    2    0  504 -0.42078066582E+02  0.81201873060E+02 -0.13413183168E+03  0.23724387483E+03  0.17300000000E+03 0. -1.
        6    1    1    2  502    0  0.13265104490E+03 -0.18776992139E+03 -0.13466109738E+02  0.28803503121E+03  0.17300000000E+03 0.  1.
       -6    1    1    2    0  502 -0.15638771292E+03  0.43666901163E+02  0.28190889134E+03  0.36846375402E+03  0.17300000000E+03 0. -1.
</event>
<event>
 6   0  0.4500850E-05  0.6307495E+03  0.7546771E-02  0.9893658E-01
        1   -1    0    0  502    0  0.00000000000E+00  0.00000000000E+00  0.12013603075E+04  0.12013603075E+04  0.00000000000E+00 0. -1.
       -1   -1    0    0    0  501  0.00000000000E+00  0.00000000000E+00 -0.29383991040E+03  0.29383991040E+03  0.00000000000E+00 0.  1.
        6    1    1    2  502    0  0.14508587619E+02 -0.22261688730E+03  0.41775587907E+03  0.50420011119E+03  0.17300000000E+03 0.  1.
       -6    1    1    2    0  503 -0.12553849152E+03 -0.86433328365E+02  0.14070676820E+03  0.27010743737E+03  0.17300000000E+03 0.  1.
        6    1    1    2  503    0 -0.10778565109E+03  0.28063252571E+03  0.23061845191E+03  0.41651678409E+03  0.17300000000E+03 0.  1.
       -6    1    1    2    0  501  0.21881555499E+03  0.28417689951E+02  0.11843929788E+03  0.30437588520E+03  0.17300000000E+03 0. -1.
</event>
<event>
 6   0  0.4500850E-05  0.2843610E+03  0.7546771E-02  0.1111814E+00
       21   -1    0    0  502  503  0.00000000000E+00  0.00000000000E+00  0.38208835071E+03  0.38208835071E+03  0.00000000000E+00 0.  1.
       21   -1    0    0  501  504  0.00000000000E+00  0.00000000000E+00 -0.21498891792E+04  0.21498891792E+04  0.00000000000E+00 0.  1.
        6    1    1    2  501    0  0.22870248507E+03  0.28060649994E+02 -0.11695587909E+04  0.12045285352E+04  0.17300000000E+03 0.  1.
       -6    1    1    2    0  503 -0.16055607447E+03 -0.22141424793E+03 -0.68681755031E+03  0.75924295825E+03  0.17300000000E+03 0. -1.
        6    1    1    2  502    0 -0.29339040785E+02 -0.18332561344E+02  0.20331477643E+03  0.26918907934E+03  0.17300000000E+03 0.  1.
       -6    1    1    2    0  504 -0.38807369816E+02  0.21168615928E+03 -0.11473926363E+03  0.29901695705E+03  0.17300000000E+03 0.  1.
</event>
<event>
 6   0  0.4500850E-05  0.2524607E+03  0.7546771E-02  0.1112159E+00
       21   -1    0    0  504  503  0.00000000000E+00  0.00000000000E+00  0.83920620883E+03  0.83920620883E+03  0.00000000000E+00 0.  1.
       21   -1    0    0  502  504  0.00000000000E+00  0.00000000000E+00 -0.63229981182E+03  0.63229981182E+03  0.00000000000E+00 0.  1.
        6    1    1    2  501    0  0.35135264362E+03  0.37456351029E+02  0.14925109375E+03  0.42078087813E+03  0.17300000000E+03 0.  1.
       -6    1    1    2    0  503 -0.52809443731E+02  0.19575275809E+02  0.40022409233E+03  0.43963661455E+03  0.17300000000E+03 0.  1.
        6    1    1    2  502    0 -0.55688565187E+02  0.14121601700E+02 -0.20723050371E+03  0.27599658982E+03  0.17300000000E+03 0. -1.
       -6    1    1    2    0  501 -0.24285463470E+03 -0.71153228538E+02 -0.13533828536E+03  0.33509193815E+03  0.17300000000E+03 0.  1.
</event>
<event>
 6   0  0.4500850E-05  0.2421458E+03  0.7546771E-02  0.1128202E+00
       21   -1    0    0  502  503  0.00000000000E+00  0.00000000000E+00  0.14931161041E+04  0.14931161041E+04  0.00000000000E+00 0. -1.
       21   -1    0    0  501  504  0.00000000000E+00  0.00000000000E+00 -0.19371540679E+03  0.19371540679E+03  0.00000000000E+00 0. -1.
        6    1    1    2  501    0  0.19256282130E+02 -0.15599861491E+03  0.14805759552E+03  0.27668831534E+03  0.17300000000E+03 0. -1.
       -6    1    1    2    0  504 -0.44949856845E+02  0.17480731903E+03  0.94483187506E+02  0.26727169910E+03  0.17300000000E+03 0.  1.
        6    1    1    2  502    0  0.46476129799E+02  0.62262660543E+02  0.25201472997E+03  0.31539989483E+03  0.17300000000E+03 0. -1.
       -6    1    1    2    0  503 -0.20782555084E+02 -0.81071364660E+02  0.80484518431E+03  0.82747160161E+03  0.17300000000E+03 0. -1.
</event>
<event>
 6   0  0.4500850E-05  0.3109577E+03  0.7546771E-02  0.1087887E+00
       21   -1    0    0  501  503  0.00000000000E+00  0.00000000000E+00  0.12067422377E+04  0.12067422377E+04  0.00000000000E+00 0.  1.
       21   -1    0    0  502  504  0.00000000000E+00  0.00000000000E+00 -0.43371256950E+03  0.43371256950E+03  0.00000000000E+00 0.  1.
        6    1    1    2  501    0  0.61331685848E+02  0.17621270900E+03 -0.26870851693E+02  0.25585843190E+03  0.17300000000E+03 0. -1.
       -6    1    1    2    0  503  0.22525483545E+03  0.83089513258E+02  0.29140370570E+03  0.41531762279E+03  0.17300000000E+03 0.  1.
        6    1    1    2  502    0 -0.10892498051E+03 -0.29860518906E+03  0.60113877631E+03  0.70165984543E+03  0.17300000000E+03 0.  1.
       -6    1    1    2    0  504 -0.17766154079E+03  0.39302966800E+02 -0.92641962117E+02  0.26761890707E+03  0.17300000000E+03 0.  1.
</event>
<event>
 6   0  0.4500850E-05  0.2546211E+03  0.7546771E-02  0.1116456E+00
       21   -1    0    0  504  503  0.00000000000E+00  0.00000000000E+00  0.52381861683E+03  0.52381861683E+03  0.00000000000E+00 0.  1.
       21   -1    0    0  501  504  0.00000000000E+00  0.00000000000E+00 -0.79982541585E+03  0.79982541585E+03  0.00000000000E+00 0.  1.
        6    1    1    2  501    0 -0.14370624977E+03  0.45622790559E+02 -0.43459656810E+03  0.49146322573E+03  0.17300000000E+03 0.  1.
       -6    1    1    2    0  503 -0.13458230385E+03  0.10788541474E+03  0.12166750788E+03  0.27291691354E+03  0.17300000000E+03 0.  1.
        6    1    1    2  502    0  0.30554069490E+03 -0.63330601704E+02  0.56799787510E+02  0.36127703666E+03  0.17300000000E+03 0.  1.
       -6    1    1    2    0  502 -0.27252141281E+02 -0.90177603591E+02 -0.19877526310E+02  0.19798685675E+03  0.17300000000E+03 0.  1.
</event>
<event>
 6   0  0.4500850E-05  0.5370399E+03  0.7546771E-02  0.1041087E+00
       21   -1    0    0  502  503  0.00000000000E+00  0.00000000000E+00  0.93037183851E+03  0.93037183851E+03  0.00000000000E+00 0.  1.
       21   -1    0    0  501  504  0.00000000000E+00  0.00000000000E+00 -0.72872317050E+03  0.72872317050E+03  0.00000000000E+00 0.  1.
        6    1    1    2  501    0  0.27492207784E+03 -0.60825613415E+02 -0.26915406825E+03  0.42620982695E+03  0.17300000000E+03 0.  1.
       -6    1    1    2    0  504 -0.38933791898E+03  0.11671605582E+03  0.13585523706E+03  0.46216046811E+03  0.17300000000E+03 0.  1.
        6    1    1    2  502    0  0.43256434531E+02  0.11247359630E+02  0.48812426843E+03  0.51979988808E+03  0.17300000000E+03 0.  1.
       -6    1    1    2    0  503  0.71159406615E+02 -0.67137802031E+02 -0.15317676922E+03  0.25092482588E+03  0.17300000000E+03 0. -1.
</event>
<event>
 6   0  0.4500850E-05  0.2399500E+03  0.7546771E-02  0.1125232E+00
       21   -1    0    0  501  503  0.00000000000E+00  0.00000000000E+00  0.54376161673E+03  0.54376161673E+03  0.00000000000E+00 0. -1.
       21   -1    0    0  502  504  0.00000000000E+00  0.00000000000E+00 -0.85639561546E+03  0.85639561546E+03  0.00000000000E+00 0. -1.
        6    1    1    2  501    0  0.92422375787E+02  0.41422395089E+02 -0.36978811150E+03  0.42063042896E+03  0.17300000000E+03 0. -1.
       -6    1    1    2    0  504  0.83213078578E+02  0.14071473742E+03 -0.24384780283E+03  0.34075769209E+03  0.17300000000E+03 0. -1.
        6    1    1    2  502    0 -0.20737574382E+03 -0.18805550269E+03  0.32335953242E+03  0.46136748739E+03  0.17300000000E+03 0. -1.
       -6    1    1    2    0  503  0.31740289456E+02  0.59183701755E+01 -0.22357616820E+02  0.17740162375E+03  0.17300000000E+03 0. -1.
</event>
<event>
 6   0  0.4500850E-05  0.2235057E+03  0.7546771E-02  0.1131575E+00
       21   -1    0    0  502  503  0.00000000000E+00  0.00000000000E+00  0.94412173744E+03  0.94412173744E+03  0.00000000000E+00 0.  1.
       21   -1    0    0  501  504  0.00000000000E+00  0.00000000000E+00 -0.90729072896E+03  0.90729072896E+03  0.00000000000E+00 0.  1.
        6    1    1    2  501    0 -0.91187914620E+02 -0.16283141099E+03  0.16260157743E+02  0.25499548409E+03  0.17300000000E+03 0. -1.
       -6    1    1    2    0  504  0.51374303225E+02  0.16622951186E+03 -0.11276453481E+03  0.27003038710E+03  0.17300000000E+03 0. -1.
        6    1    1    2  502    0  0.46148104145E+02  0.81897491584E+02 -0.56686112082E+03  0.60008114196E+03  0.17300000000E+03 0.  1.
       -6    1    1    2    0  503 -0.63344927504E+01 -0.85295592457E+02  0.70019650637E+03  0.72630545325E+03  0.17300000000E+03 0.  1.
</event>
<event>
 6   0  0.4500850E-05  0.2808808E+03  0.7546771E-02  0.1099621E+00
       21   -1    0    0  502  503  0.00000000000E+00  0.00000000000E+00  0.38908499027E+03  0.38908499027E+03  0.00000000000E+00 0.  1.
       21   -1    0    0  501  504  0.00000000000E+00  0.00000000000E+00 -0.14703931381E+04  0.14703931381E+04  0.00000000000E+00 0. -1.
        6    1    1    2  501    0 -0.46321262505E+02  0.89696946015E+02 -0.69303082555E+03  0.72139581829E+03  0.17300000000E+03 0. -1.
       -6    1    1    2    0  503 -0.13181073641E+03  0.21939067151E+03 -0.46160859884E+03  0.55544381850E+03  0.17300000000E+03 0.  1.
        6    1    1    2  502    0 -0.65681177636E+02 -0.13712301566E+03  0.13433471338E+01  0.23032052253E+03  0.17300000000E+03 0. -1.
       -6    1    1    2    0  504  0.24381317656E+03 -0.17196460187E+03  0.71987929390E+02  0.35231796908E+03  0.17300000000E+03 0.  1.
</event>
<event>
 6   0  0.4500850E-05  0.4317015E+03  0.7546771E-02  0.1059195E+00
       21   -1    0    0  501  503  0.00000000000E+00  0.00000000000E+00  0.98525627909E+03  0.98525627909E+03  0.00000000000E+00 0. -1.
       21   -1    0    0  503  504  0.00000000000E+00  0.00000000000E+00 -0.34965172154E+03  0.34965172154E+03  0.00000000000E+00 0. -1.
        6    1    1    2  501    0 -0.10433446636E+03  0.85330741951E+02  0.35460007636E+03  0.41693792169E+03  0.17300000000E+03 0. -1.
       -6    1    1    2    0  504  0.11025635401E+03 -0.53319573754E+01  0.77490910120E+02  0.21935982887E+03  0.17300000000E+03 0.  1.
        6    1    1    2  502    0  0.86175722877E+02 -0.18742150595E+03 -0.12854888947E+03  0.29834023043E+03  0.17300000000E+03 0. -1.
       -6    1    1    2    0  502 -0.92097610526E+02  0.10742272138E+03  0.33206246053E+03  0.40027001965E+03  0.17300000000E+03 0. -1.
</event>
<event>
 6   0  0.4500850E-05  0.2184387E+03  0.7546771E-02  0.1139803E+00
       21   -1    0    0  501  503  0.00000000000E+00  0.00000000000E+00  0.17698306623E+04  0.17698306623E+04  0.00000000000E+00 0. -1.
       21   -1    0    0  502  504  0.00000000000E+00  0.00000000000E+00 -0.13700984963E+04  0.13700984963E+04  0.00000000000E+00 0. -1.
        6    1    1    2  501    0  0.17376339063E+02  0.17061116644E+02  0.38332372898E+03  0.42125894656E+03  0.17300000000E+03 0. -1.
       -6    1    1    2    0  503  0.31705488512E+02  0.16696781166E+03  0.90133843400E+03  0.93339351869E+03  0.17300000000E+03 0. -1.
        6    1    1    2  502    0  0.72727166899E+02 -0.56585993868E+02 -0.12932731722E+04  0.13080427032E+04  0.17300000000E+03 0. -1.
       -6    1    1    2    0  504 -0.12180899447E+03 -0.12744293444E+03  0.40834317520E+03  0.47723399020E+03  0.17300000000E+03 0. -1.
</event>
<event>
 6   0  0.4500850E-05  0.2380770E+03  0.7546771E-02  0.1130044E+00
       21   -1    0    0  502  503  0.00000000000E+00  0.00000000000E+00  0.42494114899E+03  0.42494114899E+03  0.00000000000E+00 0.  1.
       21   -1    0    0  501  504  0.00000000000E+00  0.00000000000E+00 -0.17065584326E+04  0.17065584326E+04  0.00000000000E+00 0. -1.
        6    1    1    2  501    0  0.58663943697E+02 -0.12706083518E+03 -0.88966483677E+03  0.91707057303E+03  0.17300000000E+03 0. -1.
       -6    1    1    2    0  504  0.19838896952E+02 -0.13752873562E+03  0.15228486356E+03  0.26912341894E+03  0.17300000000E+03 0.  1.
        6    1    1    2  502    0  0.39850768856E+02 -0.24715118504E+02  0.10248010658E+03  0.20647056232E+03  0.17300000000E+03 0. -1.
       -6    1    1    2    0  503 -0.11835360950E+03  0.28930468931E+03 -0.64671741700E+03  0.73883502731E+03  0.17300000000E+03 0. -1.
</event>
<event>
 6   0  0.4500850E-05  0.3572573E+03  0.7546771E-02  0.1068451E+00
       21   -1    0    0  502  503  0.00000000000E+00  0.00000000000E+00  0.16730593425E+04  0.16730593425E+04  0.00000000000E+00 0.  1.
       21   -1    0    0  501  504  0.00000000000E+00  0.00000000000E+00 -0.40829884367E+03  0.40829884367E+03  0.00000000000E+00 0. -1.
        6    1    1    2  501    0 -0.46346773926E+03  0.12269449241E+03  0.69677272332E+03  0.86329456836E+03  0.17300000000E+03 0.  1.
       -6    1    1    2    0  503 -0.28191281962E+02  0.15481871159E+03 -0.17918033850E+02  0.23454986202E+03  0.17300000000E+03 0. -1.
        6    1    1    2  502    0  0.23635204890E+02  0.62736530980E+02  0.15223877905E+03  0.24000029391E+03  0.17300000000E+03 0.  1.
       -6    1    1    2    0  504  0.46802381633E+03 -0.34024973498E+03  0.43366703032E+03  0.74351346188E+03  0.17300000000E+03 0. -1.
</event>
<event>
 6   0  0.4500850E-05  0.3398852E+03  0.7546771E-02  0.1071879E+00
       21   -1    0    0  501  503  0.00000000000E+00  0.00000000000E+00  0.44068404904E+03  0.44068404904E+03  0.00000000000E+00 0. -1.
       21   -1    0    0  502  504  0.00000000000E+00  0.00000000000E+00 -0.13034037876E+04  0.13034037876E+04  0.00000000000E+00 0.  1.
        6    1    1    2  501    0  0.15900411432E+03 -0.11205381469E+03 -0.19945421488E+03  0.32794717500E+03  0.17300000000E+03 0.  1.
       -6    1    1    2    0  504 -0.13116406702E+03  0.43496638801E+03 -0.49973923280E+03  0.69718582313E+03  0.17300000000E+03 0.  1.
        6    1    1    2  502    0  0.18143797335E+03 -0.17788711784E+02  0.52721241287E+02  0.25679701269E+03  0.17300000000E+03 0. -1.
       -6    1    1    2    0  503 -0.20927802066E+03 -0.30512386153E+03 -0.21624753218E+03  0.46215782583E+03  0.17300000000E+03 0. -1.
</event>
<event>
 6   0  0.4500850E-05  0.3514809E+03  0.7546771E-02  0.1071976E+00
       21   -1    0    0  504  503  0.00000000000E+00  0.00000000000E+00  0.21705644376E+04  0.21705644376E+04  0.00000000000E+00 0. -1.
       21   -1    0    0  502  504  0.00000000000E+00  0.00000000000E+00 -0.38477790622E+03  0.38477790622E+03  0.00000000000E+00 0.  1.
        6    1    1    2  501    0 -0.10200419817E+02 -0.19015860449E+03  0.13115729938E+03  0.28878292991E+03  0.17300000000E+03 0.  1.
       -6    1    1    2    0  501  0.24376421455E+03 -0.14044166291E+03 -0.83439950186E+02  0.34064068791E+03  0.17300000000E+03 0.  1.
        6    1    1    2  502    0 -0.33155957728E+03  0.41664207384E+02  0.42885547757E+03  0.57053806192E+03  0.17300000000E+03 0. -1.
       -6    1    1    2    0  503  0.97995782543E+02  0.28893606002E+03  0.13092137046E+04  0.13553806640E+04  0.17300000000E+03 0. -1.
</event>
<event>
 6   0  0.4500850E-05  0.4186778E+03  0.7546771E-02  0.1037498E+00
        4   -1    0    0  502    0  0.00000000000E+00  0.00000000000E+00  0.16577359829E+03  0.16577359829E+03  0.00000000000E+00 0.  1.
       -4   -1    0    0    0  501  0.00000000000E+00  0.00000000000E+00 -0.12830575385E+04  0.12830575385E+04  0.00000000000E+00 0. -1.
        6    1    1    2  502    0  0.11161707848E+03 -0.15099745403E+03 -0.26716988152E+03  0.36955019811E+03  0.17300000000E+03 0. -1.
       -6    1    1    2    0  503 -0.77683599608E+02  0.19735424729E+03 -0.24988840254E+03  0.37061658664E+03  0.17300000000E+03 0.  1.
        6    1    1    2  503    0  0.30023814469E+01 -0.60340169254E+02 -0.40682685512E+03  0.44619170809E+03  0.17300000000E+03 0. -1.
       -6    1    1    2    0  501 -0.36935860318E+02  0.13983375991E+02 -0.19339880108E+03  0.26247264399E+03  0.17300000000E+03 0.  1.
</event>
<event>
 6   0  0.4500850E-05  0.1136692E+04  0.7546771E-02  0.9288813E-01
       21   -1    0    0  501  503  0.00000000000E+00  0.00000000000E+00  0.83947001308E+03  0.83947001308E+03  0.00000000000E+00 0. -1.
       21   -1    0    0  502  504  0.00000000000E+00  0.00000000000E+00 -0.11381309576E+04  0.11381309576E+04  0.00000000000E+00 0.  1.
        6    1    1    2  501    0  0.97403449702E+02 -0.14317356811E+02  0.67754135132E+02  0.21026659637E+03  0.17300000000E+03 0.  1.
       -6    1    1    2    0  504  0.56804654904E+03  0.18765876911E+03 -0.56114942685E+03  0.83827822038E+03  0.17300000000E+03 0.  1.
        6    1    1    2  502    0 -0.69415238883E+03 -0.15411709325E+03  0.16468490295E+03  0.75009981643E+03  0.17300000000E+03 0. -1.
       -6    1    1    2    0  503  0.28702390080E+02 -0.19224319053E+02  0.30049444235E+02  0.17895633752E+03  0.17300000000E+03 0.  1.
</event>
<event>
 6   0  0.4500850E-05  0.2359009E+03  0.7546771E-02  0.1129438E+00
       21   -1    0    0  502  503  0.00000000000E+00  0.00000000000E+00  0.38228231647E+03  0.38228231647E+03  0.00000000000E+00 0.  1.
       21   -1    0    0  501  504  0.00000000000E+00  0.00000000000E+00 -0.10063524444E+04  0.10063524444E+04  0.00000000000E+00 0. -1.
        6    1    1    2  501    0 -0.23323408311E+01 -0.22501053387E+02  0.65729677024E+01  0.17459650948E+03  0.17300000000E+03 0.  1.
       -6    1    1    2    0  504  0.11474743737E+03  0.76340616877E+01 -0.60481098376E+03  0.63949243886E+03  0.17300000000E+03 0. -1.
        6    1    1    2  502    0  0.11379341622E+03  0.99376539309E+00 -0.15782259056E+03  0.26035917352E+03  0.17300000000E+03 0.  1.
       -6    1    1    2    0  503 -0.22620851275E+03  0.13873226306E+02  0.13199047872E+03  0.31418663899E+03  0.17300000000E+03 0.  1.
</event>
<event>
 6   0  0.4500850E-05  0.6386472E+03  0.7546771E-02  0.1022410E+00
       21   -1    0    0  502  503  0.00000000000E+00  0.00000000000E+00  0.61149806573E+03  0.61149806573E+03  0.00000000000E+00 0.  1.
       21   -1    0    0  501  504  0.00000000000E+00  0.00000000000E+00 -0.10160182358E+04  0.10160182358E+04  0.00000000000E+00 0.  1.
        6    1    1    2  501    0 -0.27602358346E+02 -0.22519585096E+01 -0.86093193730E+02  0.19521270325E+03  0.17300000000E+03 0.  1.
       -6    1    1    2    0  504  0.33463643666E+03 -0.16558054908E+03  0.17551562691E+03  0.44736249090E+03  0.17300000000E+03 0.  1.
        6    1    1    2  502    0  0.54264007587E+02 -0.34626143072E+02  0.12313920867E+03  0.22189145323E+03  0.17300000000E+03 0.  1.
       -6    1    1    2    0  503 -0.36129808590E+03  0.20245865067E+03 -0.61708181190E+03  0.76304965414E+03  0.17300000000E+03 0.  1.
</event>
<event>
 6   0  0.4500850E-05  0.3192279E+03  0.7546771E-02  0.1084416E+00
       21   -1    0    0  501  503  0.00000000000E+00  0.00000000000E+00  0.14570421028E+04  0.14570421028E+04  0.00000000000E+00 0. -1.
       21   -1    0    0  503  504  0.00000000000E+00  0.00000000000E+00 -0.11648967262E+04  0.11648967262E+04  0.00000000000E+00 0.  1.
        6    1    1    2  501    0  0.73276547670E+02  0.19980703134E+03  0.63776836675E+03  0.69424044238E+03  0.17300000000E+03 0. -1.
       -6    1    1    2    0  502 -0.33532014138E+03 -0.22918032730E+02  0.60492758990E+03  0.71332406552E+03  0.17300000000E+03 0. -1.
        6    1    1    2  502    0  0.38663066315E+03 -0.22628227827E+03 -0.41084371042E+03  0.63198773211E+03  0.17300000000E+03 0.  1.
       -6    1    1    2    0  504 -0.12458706944E+03  0.49393279655E+02 -0.53970686957E+03  0.58238658896E+03  0.17300000000E+03 0.  1.
</event>
<event>
 6   0  0.4500850E-05  0.6190541E+03  0.7546771E-02  0.9866645E-01
       -1   -1    0    0    0  501  0.00000000000E+00  0.00000000000E+00  0.64917622982E+03  0.64917622982E+03  0.00000000000E+00 0. -1.
        1   -1    0    0  502    0  0.00000000000E+00  0.00000000000E+00 -0.99445219865E+03  0.99445219865E+03  0.00000000000E+00 0.  1.
        6    1    1    2  502    0 -0.15294120427E+03  0.33222674748E+03  0.26544673776E+03  0.48389729726E+03  0.17300000000E+03 0. -1.
       -6    1    1    2    0  503  0.13150903844E+03 -0.30749935310E+02  0.49683910358E+02  0.22502816860E+03  0.17300000000E+03 0. -1.
        6    1    1    2  503    0 -0.72626607404E+02 -0.37518126667E+03 -0.56529336823E+03  0.70393266662E+03  0.17300000000E+03 0.  1.
       -6    1    1    2    0  501  0.94058773232E+02  0.73704454496E+02 -0.95113248716E+02  0.23077029600E+03  0.17300000000E+03 0. -1.
</event>
<event>
 6   0  0.4500850E-05  0.3600079E+03  0.7546771E-02  0.1065624E+00
       21   -1    0    0  502  503  0.00000000000E+00  0.00000000000E+00  0.14419269698E+04  0.14419269698E+04  0.00000000000E+00 0.  1.
       21   -1    0    0  501  504  0.00000000000E+00  0.00000000000E+00 -0.40138876495E+03  0.40138876495E+03  0.00000000000E+00 0. -1.
        6    1    1    2  501    0  0.78422159499E+01  0.28354340161E+03  0.50047091592E+03  0.60071498952E+03  0.17300000000E+03 0.  1.
       -6    1    1    2    0  504  0.78249941952E+02 -0.40693908317E+03  0.65575893833E+02  0.45381898228E+03  0.17300000000E+03 0. -1.
        6    1    1    2  502    0 -0.28070790160E+03  0.11819476787E+03  0.36610568513E+03  0.50668461775E+03  0.17300000000E+03 0. -1.
       -6    1    1    2    0  503  0.19461574370E+03  0.52009136907E+01  0.10838570994E+03  0.28209714518E+03  0.17300000000E+03 0.  1.
</event>
<event>
 6   0  0.4500850E-05  0.2177882E+03  0.7546771E-02  0.1137931E+00
       21   -1    0    0  504  503  0.00000000000E+00  0.00000000000E+00  0.19096205949E+04  0.19096205949E+04  0.00000000000E+00 0.  1.
       21   -1    0    0  502  504  0.00000000000E+00  0.00000000000E+00 -0.14689695612E+03  0.14689695612E+03  0.00000000000E+00 0.  1.
        6    1    1    2  501    0 -0.68323566691E+02  0.93947703663E+02  0.65317471440E+03  0.68560957426E+03  0.17300000000E+03 0.  1.
       -6    1    1    2    0  503 -0.18780192826E+03 -0.66876261071E+02  0.65636420053E+03  0.70744961820E+03  0.17300000000E+03 0.  1.
        6    1    1    2  502    0  0.11101519250E+03 -0.15897633933E+02  0.36809134447E+03  0.42189731642E+03  0.17300000000E+03 0. -1.
       -6    1    1    2    0  501  0.14511030245E+03 -0.11173808658E+02  0.85093379410E+02  0.24156104218E+03  0.17300000000E+03 0.  1.
</event>
<event>
 6   0  0.4500850E-05  0.3335811E+03  0.7546771E-02  0.1084272E+00
       21   -1    0    0  501  503  0.00000000000E+00  0.00000000000E+00  0.14300558305E+04  0.14300558305E+04  0.00000000000E+00 0. -1.
       21   -1    0    0  502  504  0.00000000000E+00  0.00000000000E+00 -0.10746277713E+04  0.10746277713E+04  0.00000000000E+00 0. -1.
        6    1    1    2  501    0  0.10341458730E+02  0.25529851979E+03 -0.78195307862E+03  0.84063303358E+03  0.17300000000E+03 0. -1.
       -6    1    1    2    0  504  0.19049580830E+03  0.24045569877E+03  0.47686572612E+03  0.59282165682E+03  0.17300000000E+03 0. -1.
        6    1    1    2  502    0 -0.23639305781E+03 -0.39119631190E+03  0.13494855511E+03  0.50700724330E+03  0.17300000000E+03 0. -1.
       -6    1    1    2    0  503  0.35555790786E+02 -0.10455790665E+03  0.52556685655E+03  0.56422166815E+03  0.17300000000E+03 0. -1.
</event>
<event>
 6   0  0.4500850E-05  0.3730862E+03  0.7546771E-02  0.1071489E+00
       21   -1    0    0  502  503  0.00000000000E+00  0.00000000000E+00  0.33642080835E+03  0.33642080835E+03  0.00000000000E+00 0.  1.
       21   -1    0    0  501  504  0.00000000000E+00  0.00000000000E+00 -0.20107438445E+04  0.20107438445E+04  0.00000000000E+00 0.  1.
        6    1    1    2  501    0 -0.36299298497E+03 -0.88189799914E+02 -0.57184647570E+03  0.70461247485E+03  0.17300000000E+03 0.  1.
       -6    1    1    2    0  504  0.63019183990E+02 -0.26536975017E+03 -0.33358839193E+03  0.46433041801E+03  0.17300000000E+03 0. -1.
        6    1    1    2  502    0  0.14170861590E+03  0.33839359480E+02  0.81127493639E+02  0.24028546417E+03  0.17300000000E+03 0.  1.
       -6    1    1    2    0  503  0.15826518509E+03  0.31972019061E+03 -0.85001566212E+03  0.93793629578E+03  0.17300000000E+03 0.  1.
</event>
<event>
 6   0  0.4500850E-05  0.2752113E+03  0.7546771E-02  0.1116234E+00
       21   -1    0    0  501  503  0.00000000000E+00  0.00000000000E+00  0.67968154551E+03  0.67968154551E+03  0.00000000000E+00 0. -1.
       21   -1    0    0  502  504  0.00000000000E+00  0.00000000000E+00 -0.51327638134E+03  0.51327638134E+03  0.00000000000E+00 0.  1.
        6    1    1    2  501    0 -0.17979610245E+02 -0.60503930086E+01  0.30314470244E+03  0.34955054607E+03  0.17300000000E+03 0. -1.
       -6    1    1    2    0  504  0.67201809310E+02  0.73698559877E+02  0.11492629554E+03  0.23040098591E+03  0.17300000000E+03 0. -1.
        6    1    1    2  502    0 -0.10525956233E+03 -0.22812463145E+03 -0.20079682335E+03  0.36519691565E+03  0.17300000000E+03 0.  1.
       -6    1    1    2    0  503  0.56037363267E+02  0.16047646458E+03 -0.50869010459E+02  0.24780947922E+03  0.17300000000E+03 0.  1.
</event>
<event>
 6   0  0.4500850E-05  0.2482580E+03  0.7546771E-02  0.1118833E+00
       21   -1    0    0  504  503  0.00000000000E+00  0.00000000000E+00  0.91381918697E+03  0.91381918697E+03  0.00000000000E+00 0.  1.
       21   -1    0    0  502  504  0.00000000000E+00  0.00000000000E+00 -0.63241741617E+03  0.63241741617E+03  0.00000000000E+00 0.  1.
        6    1    1    2  501    0  0.18024531266E+02 -0.11911369417E+03  0.48505791322E+03  0.52888858471E+03  0.17300000000E+03 0.  1.
       -6    1    1    2    0  501 -0.27757625689E+03  0.39045202530E+02 -0.13417991336E+03  0.35567731918E+03  0.17300000000E+03 0.  1.
        6    1    1    2  502    0  0.59844321511E+02 -0.53172863625E+02 -0.25049627514E+03  0.31477941499E+03  0.17300000000E+03 0.  1.
       -6    1    1    2    0  503  0.19970740411E+03  0.13324135526E+03  0.18102004609E+03  0.34689128426E+03  0.17300000000E+03 0.  1.
</event>
<event>
 6   0  0.4500850E-05  0.3552834E+03  0.7546771E-02  0.1072373E+00
       21   -1    0    0  501  503  0.00000000000E+00  0.00000000000E+00  0.22941301700E+04  0.22941301700E+04  0.00000000000E+00 0. -1.
       21   -1    0    0  502  504  0.00000000000E+00  0.00000000000E+00 -0.41792373305E+03  0.41792373305E+03  0.00000000000E+00 0.  1.
        6    1    1    2  501    0 -0.10135194830E+02  0.73630258375E+00  0.40238281265E+02  0.17790835729E+03  0.17300000000E+03 0.  1.
       -6    1    1    2    0  504 -0.44324758549E+03  0.24880709376E+03 -0.31226724516E+02  0.53784523821E+03  0.17300000000E+03 0.  1.
        6    1    1    2  502    0  0.29665836250E+03 -0.31059499468E+03  0.12959845980E+04  0.13762196456E+04  0.17300000000E+03 0. -1.
       -6    1    1    2    0  503  0.15672441782E+03  0.61051598339E+02  0.57121028223E+03  0.62008066195E+03  0.17300000000E+03 0. -1.
</event>
<event>
 6   0  0.4500850E-05  0.2982605E+03  0.7546771E-02  0.1088254E+00
       21   -1    0    0  501  503  0.00000000000E+00  0.00000000000E+00  0.17496552728E+03  0.17496552728E+03  0.00000000000E+00 0.  1.
       21   -1    0    0  502  504  0.00000000000E+00  0.00000000000E+00 -0.13925221297E+04  0.13925221297E+04  0.00000000000E+00 0. -1.
        6    1    1    2  501    0  0.14569249469E+03 -0.29278387961E+02 -0.23113289283E+03  0.32470747013E+03  0.17300000000E+03 0. -1.
       -6    1    1    2    0  503  0.82166976265E+02  0.21842788785E+02 -0.11482425189E+03  0.22437051551E+03  0.17300000000E+03 0. -1.
        6    1    1    2  502    0 -0.11825426966E+03  0.74757775419E+02 -0.72330250673E+03  0.75674851405E+03  0.17300000000E+03 0. -1.
       -6    1    1    2    0  504 -0.10960520130E+03 -0.67322176243E+02 -0.14829695096E+03  0.26166115728E+03  0.17300000000E+03 0.  1.
</event>
<event>
 6   0  0.4500850E-05  0.2414907E+03  0.7546771E-02  0.1123659E+00
       21   -1    0    0  501  503  0.00000000000E+00  0.00000000000E+00  0.23487607810E+03  0.23487607810E+03  0.00000000000E+00 0.  1.
       21   -1    0    0  502  504  0.00000000000E+00  0.00000000000E+00 -0.15295115446E+04  0.15295115446E+04  0.00000000000E+00 0.  1.
        6    1    1    2  501    0  0.10974014684E+03  0.10149884676E+03  0.64192599178E+02  0.23747548402E+03  0.17300000000E+03 0.  1.
       -6    1    1    2    0  504 -0.53046873837E+02  0.12137364803E+02 -0.34704515796E+03  0.39157454988E+03  0.17300000000E+03 0.  1.
        6    1    1    2  502    0 -0.17760010584E+03 -0.15910629172E+03 -0.50800192720E+03  0.58724063866E+03  0.17300000000E+03 0.  1.
       -6    1    1    2    0  503  0.12090683284E+03  0.45470080156E+02 -0.50378098055E+03  0.54809695017E+03  0.17300000000E+03 0. -1.
</event>
<event>
 6   0  0.4500850E-05  0.2394654E+03  0.7546771E-02  0.1125684E+00
       21   -1    0    0  501  503  0.00000000000E+00  0.00000000000E+00  0.81206352021E+03  0.81206352021E+03  0.00000000000E+00 0. -1.
       21   -1    0    0  502  504  0.00000000000E+00  0.00000000000E+00 -0.88587959543E+03  0.88587959543E+03  0.00000000000E+00 0.  1.
        6    1    1    2  501    0 -0.28463136368E+03  0.63182997562E+02  0.14133410239E+03  0.36730291705E+03  0.17300000000E+03 0. -1.
       -6    1    1    2    0  503  0.14710434328E+03  0.35864572018E+02  0.10866545623E+03  0.25428947426E+03  0.17300000000E+03 0. -1.
        6    1    1    2  502    0  0.75025182651E+02 -0.93096311958E+02 -0.66021504128E+03  0.69289869538E+03  0.17300000000E+03 0.  1.
       -6    1    1    2    0  504  0.62501837748E+02 -0.59512576222E+01  0.33639940744E+03  0.38345202896E+03  0.17300000000E+03 0. -1.
</event>
<event>
 6   0  0.4500850E-05  0.6160104E+03  0.7546771E-02  0.1026100E+00
       21   -1    0    0  502  503  0.00000000000E+00  0.00000000000E+00  0.13151278223E+04  0.13151278223E+04  0.00000000000E+00 0. -1.
       21   -1    0    0  501  504  0.00000000000E+00  0.00000000000E+00 -0.11334040978E+04  0.11334040978E+04  0.00000000000E+00 0.  1.
        6    1    1    2  501    0  0.18058534679E+02 -0.26511469266E+03  0.90547167590E+02  0.32975703252E+03  0.17300000000E+03 0. -1.
       -6    1    1    2    0  504 -0.21148341490E+03 -0.52694312913E+03 -0.66574198565E+03  0.89192807309E+03  0.17300000000E+03 0.  1.
        6    1    1    2  502    0  0.16428419957E+03  0.73615544161E+03  0.54722199564E+03  0.94778428186E+03  0.17300000000E+03 0. -1.
       -6    1    1    2    0  503  0.29140680647E+02  0.55902380179E+02  0.20969654690E+03  0.27906253271E+03  0.17300000000E+03 0.  1.
</event>
<event>
 6   0  0.4500850E-05  0.4182750E+03  0.7546771E-02  0.1051415E+00
       21   -1    0    0  501  503  0.00000000000E+00  0.00000000000E+00  0.42047377767E+03  0.42047377767E+03  0.00000000000E+00 0.  1.
       21   -1    0    0  502  504  0.00000000000E+00  0.00000000000E+00 -0.16403409171E+04  0.16403409171E+04  0.00000000000E+00 0. -1.
        6    1    1    2  501    0  0.66925741357E+02  0.83995932383E+02  0.10444799600E+03  0.22885094577E+03  0.17300000000E+03 0.  1.
       -6    1    1    2    0  504  0.37880935499E+02  0.79601737002E+02 -0.77863578207E+01  0.19432197296E+03  0.17300000000E+03 0. -1.
        6    1    1    2  502    0 -0.27214466642E+03 -0.18469865540E+02 -0.34128680346E+02  0.32480397507E+03  0.17300000000E+03 0.  1.
       -6    1    1    2    0  503  0.16733798957E+03 -0.14512780385E+03 -0.12824000972E+04  0.13128378010E+04  0.17300000000E+03 0.  1.
</event>
<event>
 6   0  0.4500850E-05  0.5899791E+03  0.7546771E-02  0.1014629E+00
       21   -1    0    0  501  503  0.00000000000E+00  0.00000000000E+00  0.89077440644E+03  0.89077440644E+03  0.00000000000E+00 0. -1.
       21   -1    0    0  502  504  0.00000000000E+00  0.00000000000E+00 -0.22187717131E+03  0.22187717131E+03  0.00000000000E+00 0.  1.
        6    1    1    2  501    0  0.57470010983E+02 -0.83890243357E+02  0.92514038200E+02  0.22097108941E+03  0.17300000000E+03 0.  1.
       -6    1    1    2    0  504 -0.19934136641E+03  0.13514344437E+03  0.26476826877E+03  0.39753234719E+03  0.17300000000E+03 0. -1.
        6    1    1    2  502    0  0.42245336257E+02 -0.35665193219E+02  0.12543808945E+03  0.22072695514E+03  0.17300000000E+03 0. -1.
       -6    1    1    2    0  503  0.99626019167E+02 -0.15588007794E+02  0.18617683872E+03  0.27342118601E+03  0.17300000000E+03 0. -1.
</event>
<event>
 6   0  0.4500850E-05  0.4189145E+03  0.7546771E-02  0.1060221E+00
       21   -1    0    0  502  503  0.00000000000E+00  0.00000000000E+00  0.13492581196E+04  0.13492581196E+04  0.00000000000E+00 0.  1.
       21   -1    0    0  501  504  0.00000000000E+00  0.00000000000E+00 -0.45002943419E+03  0.45002943419E+03  0.00000000000E+00 0.  1.
        6    1    1    2  501    0  0.52590314866E+03  0.17405297410E+03  0.27830638715E+03  0.64362411755E+03  0.17300000000E+03 0.  1.
       -6    1    1    2    0  503  0.22377135078E+02 -0.13112544576E+03  0.17167292048E+02  0.21890256878E+03  0.17300000000E+03 0.  1.
        6    1    1    2  502    0 -0.21656241746E+03 -0.50473449752E+02  0.79645758664E+02  0.29277857957E+03  0.17300000000E+03 0.  1.
       -6    1    1    2    0  504 -0.33171786628E+03  0.75459214101E+01  0.52410924752E+03  0.64398228786E+03  0.17300000000E+03 0. -1.
</event>
<event>
 6   0  0.4500850E-05  0.3396610E+03  0.7546771E-02  0.1076057E+00
       21   -1    0    0  502  503  0.00000000000E+00  0.00000000000E+00  0.21321312030E+03  0.21321312030E+03  0.00000000000E+00 0. -1.
       21   -1    0    0  501  504  0.00000000000E+00  0.00000000000E+00 -0.10753220828E+04  0.10753220828E+04  0.00000000000E+00 0.  1.
        6    1    1    2  501    0  0.10211068584E+03  0.27989229785E+02 -0.24774973413E+03  0.32018575844E+03  0.17300000000E+03 0. -1.
       -6    1    1    2    0  504 -0.19444263841E+03 -0.68245365609E+02 -0.12206311049E+03  0.29545519542E+03  0.17300000000E+03 0. -1.
        6    1    1    2  502    0 -0.42228365463E+02  0.11458590564E+03 -0.32269187600E+03  0.38596918459E+03  0.17300000000E+03 0. -1.
       -6    1    1    2    0  503  0.13456031803E+03 -0.74329769816E+02 -0.16960424192E+03  0.28692506469E+03  0.17300000000E+03 0.  1.
</event>
<event>
 6   0  0.4500850E-05  0.2888265E+03  0.7546771E-02  0.1091991E+00
       21   -1    0    0  502  503  0.00000000000E+00  0.00000000000E+00  0.47403518936E+03  0.47403518936E+03  0.00000000000E+00 0.  1.
       21   -1    0    0  501  504  0.00000000000E+00  0.00000000000E+00 -0.24554127444E+04  0.24554127444E+04  0.00000000000E+00 0. -1.
        6    1    1    2  501    0 -0.18654017992E+03  0.34495601824E+02  0.12886276600E+03  0.28726607480E+03  0.17300000000E+03 0.  1.
       -6    1    1    2    0  504  0.32441064727E+03 -0.26999263199E+02 -0.15951626495E+04  0.16372061894E+04  0.17300000000E+03 0. -1.
        6    1    1    2  502    0 -0.87863297593E+02 -0.17341481274E+03 -0.66757712415E+03  0.71650601744E+03  0.17300000000E+03 0.  1.
       -6    1    1    2    0  503 -0.50007169760E+02  0.16591847411E+03  0.15249945268E+03  0.28846965204E+03  0.17300000000E+03 0.  1.
</event>
<event>
 6   0  0.4500850E-05  0.2465610E+03  0.7546771E-02  0.1124944E+00
       21   -1    0    0  501  503  0.00000000000E+00  0.00000000000E+00  0.54599187962E+03  0.54599187962E+03  0.00000000000E+00 0. -1.
       21   -1    0    0  502  504  0.00000000000E+00  0.00000000000E+00 -0.63273280820E+03  0.63273280820E+03  0.00000000000E+00 0. -1.
        6    1    1    2  501    0  0.19851712437E+03  0.16213468157E+03 -0.17524122729E+03  0.35543662076E+03  0.17300000000E+03 0. -1.
       -6    1    1    2    0  504  0.62399468606E+01 -0.14417362855E+03 -0.19890699853E+03  0.30052947637E+03  0.17300000000E+03 0.  1.
        6    1    1    2  502    0 -0.21431098723E+02 -0.49028703761E+02  0.97747255318E+02  0.20578297235E+03  0.17300000000E+03 0. -1.
       -6    1    1    2    0  503 -0.18332597251E+03  0.31067650735E+02  0.18966004192E+03  0.31697561834E+03  0.17300000000E+03 0. -1.
</event>
<event>
 6   0  0.4500850E-05  0.3125848E+03  0.7546771E-02  0.1087527E+00
       21   -1    0    0  504  503  0.00000000000E+00  0.00000000000E+00  0.71646668728E+03  0.71646668728E+03  0.00000000000E+00 0. -1.
       21   -1    0    0  501  504  0.00000000000E+00  0.00000000000E+00 -0.60340242964E+03  0.60340242964E+03  0.00000000000E+00 0.  1.
        6    1    1    2  501    0  0.66633379187E+02  0.16890830729E+03  0.68389849863E+02  0.25995421723E+03  0.17300000000E+03 0. -1.
       -6    1    1    2    0  503  0.29409967191E+03 -0.21726318761E+03  0.20455849702E+03  0.45328918850E+03  0.17300000000E+03 0. -1.
        6    1    1    2  502    0 -0.31776808712E+03 -0.67476732550E+02 -0.64638553931E+02  0.37368008949E+03  0.17300000000E+03 0.  1.
       -6    1    1    2    0  502 -0.42964963977E+02  0.11583161287E+03 -0.95245535313E+02  0.23294562170E+03  0.17300000000E+03 0. -1.
</event>
<event>
 6   0  0.4500850E-05  0.2283632E+03  0.7546771E-02  0.1129763E+00
       21   -1    0    0  502  503  0.00000000000E+00  0.00000000000E+00  0.10370467011E+04  0.10370467011E+04  0.00000000000E+00 0.  1.
       21   -1    0    0  501  504  0.00000000000E+00  0.00000000000E+00 -0.55230287985E+03  0.55230287985E+03  0.00000000000E+00 0.  1.
        6    1    1    2  501    0  0.10305011561E+03  0.79541562882E+02  0.28271203027E+03  0.35609167164E+03  0.17300000000E+03 0.  1.
       -6    1    1    2    0  503  0.96044633688E+02 -0.49267288592E+01  0.59258717320E+03  0.62476987936E+03  0.17300000000E+03 0.  1.
        6    1    1    2  502    0 -0.10402905458E+03 -0.15298515977E+03 -0.19321009034E+03  0.31856811252E+03  0.17300000000E+03 0.  1.
       -6    1    1    2    0  504 -0.95065694719E+02  0.78370325744E+02 -0.19734529190E+03  0.28991991740E+03  0.17300000000E+03 0. -1.
</event>
<event>
 6   0  0.4500850E-05  0.3768916E+03  0.7546771E-02  0.1056123E+00
       21   -1    0    0  501  503  0.00000000000E+00  0.00000000000E+00  0.11466225649E+04  0.11466225649E+04  0.00000000000E+00 0.  1.
       21   -1    0    0  503  504  0.00000000000E+00  0.00000000000E+00 -0.31016109332E+03  0.31016109332E+03  0.00000000000E+00 0.  1.
        6    1    1    2  501    0 -0.16772979658E+03 -0.13213528019E+03  0.45316194796E+03  0.52997902601E+03  0.17300000000E+03 0.  1.
       -6    1    1    2    0  504  0.13369626219E+03  0.72147261196E+01  0.65264160561E+02  0.22828743603E+03  0.17300000000E+03 0.  1.
        6    1    1    2  502    0  0.24747102224E+03  0.94072087754E+02  0.27423291263E+03  0.41859784389E+03  0.17300000000E+03 0.  1.
       -6    1    1    2    0  502 -0.21343748786E+03  0.30848466316E+02  0.43802450389E+02  0.27991935224E+03  0.17300000000E+03 0. -1.
</event>
<event>
 6   0  0.4500850E-05  0.1929011E+03  0.7546771E-02  0.1156816E+00
       21   -1    0    0  504  503  0.00000000000E+00  0.00000000000E+00  0.16277705380E+03  0.16277705380E+03  0.00000000000E+00 0.  1.
       21   -1    0    0  501  504  0.00000000000E+00  0.00000000000E+00 -0.92274325947E+03  0.92274325947E+03  0.00000000000E+00 0.  1.
        6    1    1    2  501    0 -0.66440707107E+02  0.66594907340E+02 -0.19586390047E+03  0.27774253681E+03  0.17300000000E+03 0.  1.
       -6    1    1    2    0  502 -0.15768033254E+02  0.46729652009E+01 -0.20340489173E+03  0.26753133920E+03  0.17300000000E+03 0.  1.
        6    1    1    2  502    0 -0.19584567795E+02  0.31113768281E+02 -0.16017408078E+03  0.23861340706E+03  0.17300000000E+03 0.  1.
       -6    1    1    2    0  503  0.10179330816E+03 -0.10238164082E+03 -0.20052333268E+03  0.30163303021E+03  0.17300000000E+03 0.  1.
</event>
<event>
 6   0  0.4500850E-05  0.2315286E+03  0.7546771E-02  0.1125888E+00
       21   -1    0    0  502  503  0.00000000000E+00  0.00000000000E+00  0.33416814540E+03  0.33416814540E+03  0.00000000000E+00 0.  1.
       21   -1    0    0  503  504  0.00000000000E+00  0.00000000000E+00 -0.84770902925E+03  0.84770902925E+03  0.00000000000E+00 0. -1.
        6    1    1    2  501    0  0.12230714448E+03  0.14272937899E+03 -0.62021008541E+02  0.26288080705E+03  0.17300000000E+03 0. -1.
       -6    1    1    2    0  501  0.13573178957E+03 -0.14977104895E+03 -0.18603084437E+03  0.32463974011E+03  0.17300000000E+03 0. -1.
        6    1    1    2  502    0 -0.13963755201E+03 -0.68267845744E+02  0.18644467578E+02  0.23331472492E+03  0.17300000000E+03 0.  1.
       -6    1    1    2    0  504 -0.11840138203E+03  0.75309515706E+02 -0.28413349852E+03  0.36104190256E+03  0.17300000000E+03 0. -1.
</event>
<event>
 6   0  0.4500850E-05  0.3536587E+03  0.7546771E-02  0.1076888E+00
       21   -1    0    0  504  503  0.00000000000E+00  0.00000000000E+00  0.11677159656E+04  0.11677159656E+04  0.00000000000E+00 0.  1.
       21   -1    0    0  502  504  0.00000000000E+00  0.00000000000E+00 -0.78366243098E+03  0.78366243098E+03  0.00000000000E+00 0. -1.
        6    1    1    2  501    0  0.44660282338E+02  0.34856162978E+03  0.35097745168E+03  0.52593148048E+03  0.17300000000E+03 0. -1.
       -6    1    1    2    0  501 -0.21630090654E+03 -0.34084002284E+03 -0.74946374698E+02  0.44553783500E+03  0.17300000000E+03 0. -1.
        6    1    1    2  502    0 -0.66555760695E+02 -0.27657560704E+02 -0.37194733413E+03  0.41649541331E+03  0.17300000000E+03 0.  1.
       -6    1    1    2    0  503  0.23819638490E+03  0.19935953762E+02  0.47996979177E+03  0.56341366778E+03  0.17300000000E+03 0.  1.
</event>
<event>
 6   0  0.4500850E-05  0.2894092E+03  0.7546771E-02  0.1097261E+00
       21   -1    0    0  502  503  0.00000000000E+00  0.00000000000E+00  0.54937293872E+03  0.54937293872E+03  0.00000000000E+00 0. -1.
       21   -1    0    0  501  504  0.00000000000E+00  0.00000000000E+00 -0.17664785965E+04  0.17664785965E+04  0.00000000000E+00 0.  1.
        6    1    1    2  501    0  0.29085349797E+01  0.23833036306E+03  0.37813296339E+03  0.47929464793E+03  0.17300000000E+03 0. -1.
       -6    1    1    2    0  504 -0.39418175787E+01  0.73274822202E+02 -0.26843247812E+03  0.32767321039E+03  0.17300000000E+03 0.  1.
        6    1    1    2  502    0  0.11169059111E+03 -0.38704562962E+03 -0.11393086095E+04  0.12207506770E+04  0.17300000000E+03 0.  1.
       -6    1    1    2    0  503 -0.11065730851E+03  0.75440444356E+02 -0.18749753346E+03  0.28813299989E+03  0.17300000000E+03 0.  1.
</event>
<event>
 6   0  0.4500850E-05  0.4815397E+03  0.7546771E-02  0.1019525E+00
       21   -1    0    0  504  503  0.00000000000E+00  0.00000000000E+00  0.87970883233E+03  0.87970883233E+03  0.00000000000E+00 0.  1.
       21   -1    0    0  501  504  0.00000000000E+00  0.00000000000E+00 -0.52915004558E+03  0.52915004558E+03  0.00000000000E+00 0.  1.
        6    1    1    2  501    0 -0.50984862310E+01 -0.13630701616E+03 -0.20213774611E+03  0.29898873828E+03  0.17300000000E+03 0. -1.
       -6    1    1    2    0  503  0.53993227568E+02  0.13593372240E+03  0.28696156590E+03  0.36560796738E+03  0.17300000000E+03 0.  1.
        6    1    1    2  502    0  0.45050800582E+02  0.16131693575E+03  0.39223914997E+03  0.46025349446E+03  0.17300000000E+03 0.  1.
       -6    1    1    2    0  502 -0.93945541920E+02 -0.16094364199E+03 -0.12650418301E+03  0.28400867780E+03  0.17300000000E+03 0.  1.
</event>
<event>
 6   0  0.4500850E-05  0.4253310E+03  0.7546771E-02  0.1050469E+00
       21   -1    0    0  504  503  0.00000000000E+00  0.00000000000E+00  0.15905605740E+04  0.15905605740E+04  0.00000000000E+00 0.  1.
       21   -1    0    0  502  504  0.00000000000E+00  0.00000000000E+00 -0.96287437652E+03  0.96287437652E+03  0.00000000000E+00 0.  1.
        6    1    1    2  501    0 -0.72528213628E+02  0.70022442086E+02  0.52431215888E+03  0.56124479874E+03  0.17300000000E+03 0. -1.
       -6    1    1    2    0  501  0.20748067472E+03  0.49281076371E+02 -0.81467790270E+03  0.85971270784E+03  0.17300000000E+03 0. -1.
        6    1    1    2  502    0 -0.14520949743E+03 -0.25690331523E+03  0.23641272302E+03  0.41581857477E+03  0.17300000000E+03 0.  1.
       -6    1    1    2    0  503  0.10257036341E+02  0.13759979677E+03  0.68163921832E+03  0.71665886921E+03  0.17300000000E+03 0.  1.
</event>
<event>
 6   0  0.4500850E-05  0.6469991E+03  0.7546771E-02  0.1016523E+00
       21   -1    0    0  501  503  0.00000000000E+00  0.00000000000E+00  0.19199135826E+04  0.19199135826E+04  0.00000000000E+00 0.  1.
       21   -1    0    0  502  504  0.00000000000E+00  0.00000000000E+00 -0.12417994914E+04  0.12417994914E+04  0.00000000000E+00 0. -1.
        6    1    1    2  501    0  0.53517850234E+03  0.13670350255E+03  0.48015955522E+03  0.75205456946E+03  0.17300000000E+03 0.  1.
       -6    1    1    2    0  504  0.20565857758E+03 -0.12697926133E+03 -0.26093459631E+02  0.29837736505E+03  0.17300000000E+03 0. -1.
        6    1    1    2  502    0 -0.43223504722E+02 -0.11503136939E+03 -0.81573497259E+03  0.84288375997E+03  0.17300000000E+03 0. -1.
       -6    1    1    2    0  503 -0.69761357520E+03  0.10530712817E+03  0.10397829682E+04  0.12683973795E+04  0.17300000000E+03 0.  1.
</event>
<event>
 6   0  0.4500850E-05  0.4669699E+03  0.7546771E-02  0.1024723E+00
       21   -1    0    0  504  503  0.00000000000E+00  0.00000000000E+00  0.29543256404E+03  0.29543256404E+03  0.00000000000E+00 0.  1.
       21   -1    0    0  501  504  0.00000000000E+00  0.00000000000E+00 -0.70440205751E+03  0.70440205751E+03  0.00000000000E+00 0.  1.
        6    1    1    2  501    0 -0.22450093877E+03 -0.67894182547E+02 -0.17975652596E+03  0.34242035593E+03  0.17300000000E+03 0.  1.
       -6    1    1    2    0  502 -0.23859582126E+02  0.14502026375E+01 -0.82432567498E+02  0.19312045705E+03  0.17300000000E+03 0. -1.
        6    1    1    2  502    0  0.83599759932E+02  0.57134916395E+02 -0.82077797210E+02  0.21660813310E+03  0.17300000000E+03 0.  1.
       -6    1    1    2    0  503  0.16476076096E+03  0.93090635146E+01 -0.64702602801E+02  0.24768567545E+03  0.17300000000E+03 0.  1.
</event>
<event>
 6   0  0.4500850E-05  0.4714398E+03  0.7546771E-02  0.1042963E+00
       21   -1    0    0  504  503  0.00000000000E+00  0.00000000000E+00  0.49474564007E+03  0.49474564007E+03  0.00000000000E+00 0.  1.
       21   -1    0    0  501  504  0.00000000000E+00  0.00000000000E+00 -0.29151039136E+04  0.29151039136E+04  0.00000000000E+00 0. -1.
        6    1    1    2  501    0 -0.26090328188E+02  0.17879851795E+03 -0.10585347929E+04  0.10876922924E+04  0.17300000000E+03 0.  1.
       -6    1    1    2    0  502  0.26047250618E+03  0.44877656050E+00 -0.17067895488E+04  0.17351961537E+04  0.17300000000E+03 0. -1.
        6    1    1    2  502    0 -0.10500966461E+03 -0.15822350749E+03  0.16833510990E+03  0.30712768877E+03  0.17300000000E+03 0.  1.
       -6    1    1    2    0  503 -0.12937251338E+03 -0.21023787020E+02  0.17663095828E+03  0.27983341877E+03  0.17300000000E+03 0.  1.
</event>
<event>
 6   0  0.4500850E-05  0.2316113E+03  0.7546771E-02  0.1133006E+00
       21   -1    0    0  504  503  0.00000000000E+00  0.00000000000E+00  0.48432795311E+03  0.48432795311E+03  0.00000000000E+00 0.  1.
       21   -1    0    0  502  504  0.00000000000E+00  0.00000000000E+00 -0.16768182992E+04  0.16768182992E+04  0.00000000000E+00 0.  1.
        6    1    1    2  501    0  0.64414653057E+02  0.55001335810E+02  0.71838583084E+02  0.20558252963E+03  0.17300000000E+03 0. -1.
       -6    1    1    2    0  503  0.32472905200E+02 -0.14827212434E+03  0.13097658338E+03  0.26480743536E+03  0.17300000000E+03 0.  1.
        6    1    1    2  502    0  0.97932881614E+02  0.11942019095E+03 -0.14095640333E+04  0.14285138414E+04  0.17300000000E+03 0.  1.
       -6    1    1    2    0  501 -0.19482043987E+03 -0.26149402418E+02  0.14258520658E+02  0.26224244594E+03  0.17300000000E+03 0.  1.
</event>
<event>
 6   0  0.4500850E-05  0.2233166E+03  0.7546771E-02  0.1132187E+00
       21   -1    0    0  502  503  0.00000000000E+00  0.00000000000E+00  0.11107403659E+04  0.11107403659E+04  0.00000000000E+00 0. -1.
       21   -1    0    0  501  504  0.00000000000E+00  0.00000000000E+00 -0.37042054062E+03  0.37042054062E+03  0.00000000000E+00 0.  1.
        6    1    1    2  501    0 -0.34055011221E+02  0.64240732573E+02 -0.15924497649E+03  0.24611903228E+03  0.17300000000E+03 0.  1.
       -6    1    1    2    0  503 -0.60014128488E+02 -0.21977871199E+02  0.23098911973E+03  0.29558365292E+03  0.17300000000E+03 0. -1.
        6    1    1    2  502    0  0.70863504633E+02  0.15931603789E+03  0.30006426660E+02  0.24745226178E+03  0.17300000000E+03 0. -1.
       -6    1    1    2    0  504  0.23205635076E+02 -0.20157889927E+03  0.63856925539E+03  0.69200595955E+03  0.17300000000E+03 0.  1.
</event>
<event>
 6   0  0.4500850E-05  0.2840200E+03  0.7546771E-02  0.1095355E+00
       21   -1    0    0  501  503  0.00000000000E+00  0.00000000000E+00  0.66625666061E+03  0.66625666061E+03  0.00000000000E+00 0.  1.
       21   -1    0    0  502  504  0.00000000000E+00  0.00000000000E+00 -0.95261545779E+03  0.95261545779E+03  0.00000000000E+00 0.  1.
        6    1    1    2  501    0  0.26970956315E+03 -0.30274558841E+03 -0.60472645920E+03  0.74834566225E+03  0.17300000000E+03 0.  1.
       -6    1    1    2    0  504 -0.92159870436E+02 -0.93480793635E+02  0.74001692960E+02  0.22942831355E+03  0.17300000000E+03 0.  1.
        6    1    1    2  502    0 -0.19018976291E+03  0.24761947105E+03  0.99289826601E+02  0.37050643452E+03  0.17300000000E+03 0.  1.
       -6    1    1    2    0  503  0.12640070193E+02  0.14860691100E+03  0.14507614245E+03  0.27059170807E+03  0.17300000000E+03 0. -1.
</event>
<event>
 6   0  0.4500850E-05  0.2210772E+03  0.7546771E-02  0.1136634E+00
       21   -1    0    0  501  503  0.00000000000E+00  0.00000000000E+00  0.29972930365E+03  0.29972930365E+03  0.00000000000E+00 0.  1.
       21   -1    0    0  502  504  0.00000000000E+00  0.00000000000E+00 -0.90729015811E+03  0.90729015811E+03  0.00000000000E+00 0. -1.
        6    1    1    2  501    0 -0.60991882525E+02  0.11074371855E+03 -0.69545553826E+02  0.22527708492E+03  0.17300000000E+03 0.  1.
       -6    1    1    2    0  504  0.14848473298E+03 -0.92798853223E+02 -0.51149336667E+02  0.25140524602E+03  0.17300000000E+03 0.  1.
        6    1    1    2  502    0  0.15843065559E+02  0.95395587533E+02 -0.45584383486E+03  0.49706531022E+03  0.17300000000E+03 0. -1.
       -6    1    1    2    0  503 -0.10333591601E+03 -0.11334045286E+03 -0.31022129114E+02  0.23327182060E+03  0.17300000000E+03 0.  1.
</event>
<event>
 6   0  0.4500850E-05  0.2574398E+03  0.7546771E-02  0.1111622E+00
       21   -1    0    0  501  503  0.00000000000E+00  0.00000000000E+00  0.39836245517E+03  0.39836245517E+03  0.00000000000E+00 0. -1.
       21   -1    0    0  502  504  0.00000000000E+00  0.00000000000E+00 -0.14053372110E+04  0.14053372110E+04  0.00000000000E+00 0. -1.
        6    1    1    2  501    0 -0.82891703560E+02  0.46269495042E+02  0.20384399432E+03  0.28371336717E+03  0.17300000000E+03 0. -1.
       -6    1    1    2    0  503  0.26054460558E+02  0.19382579466E+03 -0.40873610497E+03  0.48501698640E+03  0.17300000000E+03 0. -1.
        6    1    1    2  502    0 -0.79875665857E+02  0.78105795367E+02 -0.51000988225E+03  0.55001792449E+03  0.17300000000E+03 0.  1.
       -6    1    1    2    0  504  0.13671290886E+03 -0.31820108507E+03 -0.29207276296E+03  0.48495138813E+03  0.17300000000E+03 0.  1.
</event>
<event>
 6   0  0.4500850E-05  0.4494648E+03  0.7546771E-02  0.1052246E+00
       21   -1    0    0  501  503  0.00000000000E+00  0.00000000000E+00  0.94804402427E+03  0.94804402427E+03  0.00000000000E+00 0.  1.
       21   -1    0    0  502  504  0.00000000000E+00  0.00000000000E+00 -0.26639503246E+04  0.26639503246E+04  0.00000000000E+00 0. -1.
        6    1    1    2  501    0 -0.14872910499E+02 -0.75541966331E+02 -0.23070440937E+03  0.29846493370E+03  0.17300000000E+03 0. -1.
       -6    1    1    2    0  504 -0.45843391000E+03 -0.19044557475E+02 -0.19913498770E+04  0.20508358486E+04  0.17300000000E+03 0. -1.
        6    1    1    2  502    0 -0.17481067774E+03  0.29803008147E+03  0.39568742351E+03  0.55306260011E+03  0.17300000000E+03 0. -1.
       -6    1    1    2    0  503  0.64811749824E+03 -0.20344355766E+03  0.11046056259E+03  0.70963096646E+03  0.17300000000E+03 0.  1.
</event>
<event>
 6   0  0.4500850E-05  0.4777439E+03  0.7546771E-02  0.1019757E+00
        2   -1    0    0  503    0  0.00000000000E+00  0.00000000000E+00  0.14069963869E+04  0.14069963869E+04  0.00000000000E+00 0.  1.
       -2   -1    0    0    0  501  0.00000000000E+00  0.00000000000E+00 -0.25388231507E+03  0.25388231507E+03  0.00000000000E+00 0. -1.
        6    1    1    2  502    0 -0.42610956408E+01  0.65468429645E+02  0.55900862110E+03  0.58883266781E+03  0.17300000000E+03 0.  1.
       -6    1    1    2    0  502 -0.15137781547E+03 -0.23134358948E+03  0.17074540012E+02  0.32658174984E+03  0.17300000000E+03 0. -1.
        6    1    1    2  503    0  0.49544758148E+02 -0.38180565026E+02  0.23604424874E+03  0.29926297126E+03  0.17300000000E+03 0. -1.
       -6    1    1    2    0  501  0.10609415296E+03  0.20405572486E+03  0.34098666203E+03  0.44620131311E+03  0.17300000000E+03 0.  1.
</event>
<event>
 6   0  0.4500850E-05  0.7134893E+03  0.7546771E-02  0.1012956E+00
       21   -1    0    0  501  503  0.00000000000E+00  0.00000000000E+00  0.12519586208E+04  0.12519586208E+04  0.00000000000E+00 0.  1.
       21   -1    0    0  503  504  0.00000000000E+00  0.00000000000E+00 -0.10500566353E+04  0.10500566353E+04  0.00000000000E+00 0. -1.
        6    1    1    2  501    0 -0.76193641751E+03 -0.14791256452E+03  0.43284883373E+03  0.90537966839E+03  0.17300000000E+03 0.  1.
       -6    1    1    2    0  502  0.58013858758E+03 -0.25335558940E+03 -0.95624857326E+02  0.66319148729E+03  0.17300000000E+03 0. -1.
        6    1    1    2  502    0  0.16863062460E+03  0.36901353711E+03  0.87035512591E+02  0.44956808002E+03  0.17300000000E+03 0. -1.
       -6    1    1    2    0  504  0.13167205339E+02  0.32254616806E+02 -0.22235750346E+03  0.28387602038E+03  0.17300000000E+03 0. -1.
</event>
<event>
 6   0  0.4500850E-05  0.2671377E+03  0.7546771E-02  0.1114106E+00
       21   -1    0    0  502  503  0.00000000000E+00  0.00000000000E+00  0.63638717329E+03  0.63638717329E+03  0.00000000000E+00 0. -1.
       21   -1    0    0  501  504  0.00000000000E+00  0.00000000000E+00 -0.11720794754E+04  0.11720794754E+04  0.00000000000E+00 0. -1.
        6    1    1    2  501    0 -0.17750800609E+03  0.83199265865E+02  0.32154335664E+03  0.41442772623E+03  0.17300000000E+03 0. -1.
       -6    1    1    2    0  504  0.61824795421E+02  0.65371381674E+02 -0.70999857646E+03  0.73628982164E+03  0.17300000000E+03 0. -1.
        6    1    1    2  502    0 -0.25966850421E+02 -0.28169866705E+03 -0.20679488051E+03  0.39079603241E+03  0.17300000000E+03 0.  1.
       -6    1    1    2    0  503  0.14165006109E+03  0.13312801952E+03  0.59557798247E+02  0.26695306838E+03  0.17300000000E+03 0.  1.
</event>
<event>
 6   0  0.4500850E-05  0.2017869E+03  0.7546771E-02  0.1149648E+00
       21   -1    0    0  502  503  0.00000000000E+00  0.00000000000E+00  0.34172791743E+03  0.34172791743E+03  0.00000000000E+00 0.  1.
       21   -1    0    0  503  504  0.00000000000E+00  0.00000000000E+00 -0.12168211278E+04  0.12168211278E+04  0.00000000000E+00 0.  1.
        6    1    1    2  501    0  0.23479377374E+02 -0.87351531153E+02  0.37080640659E+02  0.19870970049E+03  0.17300000000E+03 0.  1.
       -6    1    1    2    0  501 -0.90605826457E+02  0.70443417729E+02 -0.50845397782E+02  0.21374270833E+03  0.17300000000E+03 0. -1.
        6    1    1    2  502    0 -0.50410456534E+02  0.24652708375E+02  0.67488310906E+02  0.19399134586E+03  0.17300000000E+03 0.  1.
       -6    1    1    2    0  504  0.11753690562E+03 -0.77445949516E+01 -0.92881676415E+03  0.95210529055E+03  0.17300000000E+03 0.  1.
</event>
<event>
 6   0  0.4500850E-05  0.5186525E+03  0.7546771E-02  0.1019475E+00
       21   -1    0    0  501  503  0.00000000000E+00  0.00000000000E+00  0.15104284376E+04  0.15104284376E+04  0.00000000000E+00 0.  1.
       21   -1    0    0  502  504  0.00000000000E+00  0.00000000000E+00 -0.44539873740E+03  0.44539873740E+03  0.00000000000E+00 0.  1.
        6    1    1    2  501    0 -0.16615831563E+02  0.21084939748E+02  0.14417888828E+03  0.22679773449E+03  0.17300000000E+03 0.  1.
       -6    1    1    2    0  503 -0.16326812668E+03  0.29194142701E+03 -0.58446519181E+02  0.38109221141E+03  0.17300000000E+03 0.  1.
        6    1    1    2  502    0  0.29991061622E+03 -0.44851657129E+03  0.33864306535E+03  0.66009212853E+03  0.17300000000E+03 0.  1.
       -6    1    1    2    0  504 -0.12002665797E+03  0.13549020454E+03  0.64065426578E+03  0.68784510059E+03  0.17300000000E+03 0. -1.
</event>
<event>
 6   0  0.4500850E-05  0.2212087E+03  0.7546771E-02  0.1133159E+00
       21   -1    0    0  501  503  0.00000000000E+00  0.00000000000E+00  0.83988242006E+03  0.83988242006E+03  0.00000000000E+00 0.  1.
       21   -1    0    0  503  504  0.00000000000E+00  0.00000000000E+00 -0.18807826567E+04  0.18807826567E+04  0.00000000000E+00 0. -1.
        6    1    1    2  501    0  0.98350065977E+02 -0.16606908163E+03  0.55206212559E+03  0.60987971426E+03  0.17300000000E+03 0.  1.
       -6    1    1    2    0  502 -0.62919131399E+02 -0.26533220998E+02  0.11720047508E+03  0.21983580298E+03  0.17300000000E+03 0. -1.
        6    1    1    2  502    0 -0.88211538716E+02  0.24319809850E+03 -0.16701762085E+04  0.16989244122E+04  0.17300000000E+03 0. -1.
       -6    1    1    2    0  504  0.52780604139E+02 -0.50595795866E+02 -0.39986628752E+02  0.19202514734E+03  0.17300000000E+03 0.  1.
</event>
<event>
 6   0  0.4500850E-05  0.4567895E+03  0.7546771E-02  0.1057400E+00
       21   -1    0    0  504  503  0.00000000000E+00  0.00000000000E+00  0.10487682878E+04  0.10487682878E+04  0.00000000000E+00 0. -1.
       21   -1    0    0  502  504  0.00000000000E+00  0.00000000000E+00 -0.58450361505E+03  0.58450361505E+03  0.00000000000E+00 0. -1.
        6    1    1    2  501    0  0.24380067752E+03 -0.24911707097E+02  0.30519153065E+03  0.42793718452E+03  0.17300000000E+03 0. -1.
       -6    1    1    2    0  503  0.33721261273E+02  0.46097382387E+02  0.56312628254E+03  0.59186341517E+03  0.17300000000E+03 0. -1.
        6    1    1    2  502    0 -0.97866616027E+02 -0.63297771618E+02 -0.18817006179E+03  0.28092962567E+03  0.17300000000E+03 0. -1.
       -6    1    1    2    0  501 -0.17965532276E+03  0.42112096328E+02 -0.21588307863E+03  0.33254167753E+03  0.17300000000E+03 0. -1.
</event>
<event>
 6   0  0.4500850E-05  0.2374792E+03  0.7546771E-02  0.1121816E+00
       21   -1    0    0  502  503  0.00000000000E+00  0.00000000000E+00  0.92192502680E+03  0.92192502680E+03  0.00000000000E+00 0.  1.
       21   -1    0    0  501  504  0.00000000000E+00  0.00000000000E+00 -0.28337795042E+03  0.28337795042E+03  0.00000000000E+00 0.  1.
        6    1    1    2  501    0 -0.55539149815E+02 -0.19594244830E+03  0.77704866854E+02  0.27828957318E+03  0.17300000000E+03 0. -1.
       -6    1    1    2    0  504 -0.87037913736E+02  0.35282848341E+02  0.77861448803E+02  0.21168817403E+03  0.17300000000E+03 0.  1.
        6    1    1    2  502    0  0.47098189377E+02 -0.94523848802E+02  0.15483351658E+03  0.25505963086E+03  0.17300000000E+03 0.  1.
       -6    1    1    2    0  503  0.95478874173E+02  0.25518344876E+03  0.32814724414E+03  0.46026559916E+03  0.17300000000E+03 0. -1.
</event>
<event>
 6   0  0.4500850E-05  0.3853149E+03  0.7546771E-02  0.1051418E+00
       21   -1    0    0  501  503  0.00000000000E+00  0.00000000000E+00  0.11555707736E+04  0.11555707736E+04  0.00000000000E+00 0. -1.
       21   -1    0    0  503  504  0.00000000000E+00  0.00000000000E+00 -0.58658836406E+03  0.58658836406E+03  0.00000000000E+00 0.  1.
        6    1    1    2  501    0 -0.72041260720E+02 -0.33480750231E+02  0.47795539057E+03  0.51447182552E+03  0.17300000000E+03 0. -1.
       -6    1    1    2    0  504  0.11437108756E+03  0.33095352592E+03 -0.29511341998E+02  0.39167703697E+03  0.17300000000E+03 0.  1.
        6    1    1    2  502    0  0.29419896273E+02 -0.31376216027E+03 -0.23802105282E+03  0.43115570865E+03  0.17300000000E+03 0. -1.
       -6    1    1    2    0  502 -0.71749723118E+02  0.16289384589E+02  0.35855941380E+03  0.40485456653E+03  0.17300000000E+03 0. -1.
</event>
<event>
 6   0  0.4500850E-05  0.4071670E+03  0.7546771E-02  0.1069760E+00
       21   -1    0    0  501  503  0.00000000000E+00  0.00000000000E+00  0.57025238164E+03  0.57025238164E+03  0.00000000000E+00 0.  1.
       21   -1    0    0  502  504  0.00000000000E+00  0.00000000000E+00 -0.42374016485E+03  0.42374016485E+03  0.00000000000E+00 0. -1.
        6    1    1    2  501    0 -0.15061092662E+03 -0.88788709679E+02 -0.88035027143E+02  0.26123983653E+03  0.17300000000E+03 0.  1.
       -6    1    1    2    0  504 -0.18443451944E+02  0.54945762884E+02 -0.97537785475E+02  0.20688600091E+03  0.17300000000E+03 0. -1.
        6    1    1    2  502    0  0.24669561780E+02  0.14724173887E+01  0.10273205104E+03  0.20271563729E+03  0.17300000000E+03 0.  1.
       -6    1    1    2    0  503  0.14438481679E+03  0.32370529406E+02  0.22935297836E+03  0.32315107176E+03  0.17300000000E+03 0.  1.
</event>
<event>
 6   0  0.4500850E-05  0.2248949E+03  0.7546771E-02  0.1136409E+00
       21   -1    0    0  504  503  0.00000000000E+00  0.00000000000E+00  0.12991065582E+04  0.12991065582E+04  0.00000000000E+00 0. -1.
       21   -1    0    0  502  504  0.00000000000E+00  0.00000000000E+00 -0.21686637812E+03  0.21686637812E+03  0.00000000000E+00 0. -1.
        6    1    1    2  501    0  0.16922299085E+02 -0.85397217183E+02  0.70613003580E+03  0.73220739983E+03  0.17300000000E+03 0. -1.
       -6    1    1    2    0  503  0.11277390830E+03 -0.40921638472E+01  0.15478077317E+03  0.25811003069E+03  0.17300000000E+03 0. -1.
        6    1    1    2  502    0 -0.80150508103E+02  0.18604063813E+03  0.83098668135E+02  0.27905127061E+03  0.17300000000E+03 0. -1.
       -6    1    1    2    0  501 -0.49545699283E+02 -0.96551257100E+02  0.13823070296E+03  0.24660423518E+03  0.17300000000E+03 0.  1.
</event>
<event>
 6   0  0.4500850E-05  0.4047382E+03  0.7546771E-02  0.1071565E+00
       21   -1    0    0  502  503  0.00000000000E+00  0.00000000000E+00  0.11385117537E+04  0.11385117537E+04  0.00000000000E+00 0. -1.
       21   -1    0    0  501  504  0.00000000000E+00  0.00000000000E+00 -0.51238614451E+03  0.51238614451E+03  0.00000000000E+00 0.  1.
        6    1    1    2  501    0  0.32621043073E+02  0.46646627696E+02  0.38185451004E+03  0.42306253340E+03  0.17300000000E+03 0. -1.
       -6    1    1    2    0  503  0.12978899562E+03  0.13625468854E+02  0.43419587193E+03  0.48526888628E+03  0.17300000000E+03 0. -1.
        6    1    1    2  502    0 -0.19863098123E+03 -0.56801604057E+02  0.18581347633E+03  0.32731687539E+03  0.17300000000E+03 0. -1.
       -6    1    1    2    0  504  0.36220942537E+02 -0.34704924921E+01 -0.37573824916E+03  0.41524960311E+03  0.17300000000E+03 0.  1.
</event>
<event>
 6   0  0.4500850E-05  0.4057139E+03  0.7546771E-02  0.1070584E+00
       21   -1    0    0  502  503  0.00000000000E+00  0.00000000000E+00  0.96010275298E+03  0.96010275298E+03  0.00000000000E+00 0. -1.
       21   -1    0    0  501  504  0.00000000000E+00  0.00000000000E+00 -0.31210298896E+03  0.31210298896E+03  0.00000000000E+00 0. -1.
        6    1    1    2  501    0  0.79688530120E+02  0.21042024361E+02  0.15486491409E+02  0.19225467494E+03  0.17300000000E+03 0. -1.
       -6    1    1    2    0  503  0.34949789384E+02  0.36804109533E+02  0.56719986830E+03  0.59516444858E+03  0.17300000000E+03 0. -1.
        6    1    1    2  502    0 -0.20812412061E+03  0.59906150273E+01  0.63414882928E+02  0.27803234420E+03  0.17300000000E+03 0. -1.
       -6    1    1    2    0  504  0.93485801103E+02 -0.63836748921E+02  0.18985213808E+01  0.20675427421E+03  0.17300000000E+03 0. -1.
</event>
<event>
 6   0  0.4500850E-05  0.1995571E+03  0.7546771E-02  0.1153534E+00
       21   -1    0    0  502  503  0.00000000000E+00  0.00000000000E+00  0.12704125079E+04  0.12704125079E+04  0.00000000000E+00 0. -1.
       21   -1    0    0  501  504  0.00000000000E+00  0.00000000000E+00 -0.25795256950E+03  0.25795256950E+03  0.00000000000E+00 0. -1.
        6    1    1    2  501    0 -0.89049624419E+02 -0.12917940102E+02  0.30573878753E+03  0.36263192770E+03  0.17300000000E+03 0. -1.
       -6    1    1    2    0  503 -0.38597014020E+02  0.16844852027E+02  0.19453391363E+02  0.17911145404E+03  0.17300000000E+03 0. -1.
        6    1    1    2  502    0  0.13493492664E+03  0.86308162440E+02  0.74628623836E+03  0.78264211674E+03  0.17300000000E+03 0. -1.
       -6    1    1    2    0  504 -0.72882882029E+01 -0.90235074366E+02 -0.59018478811E+02  0.20397957896E+03  0.17300000000E+03 0. -1.
</event>
<event>
 6   0  0.4500850E-05  0.2267545E+03  0.7546771E-02  0.1129432E+00
       21   -1    0    0  501  503  0.00000000000E+00  0.00000000000E+00  0.95726195545E+03  0.95726195545E+03  0.00000000000E+00 0. -1.
       21   -1    0    0  502  504  0.00000000000E+00  0.00000000000E+00 -0.23216554481E+03  0.23216554481E+03  0.00000000000E+00 0.  1.
        6    1    1    2  501    0  0.20261297476E+03 -0.55587059295E+02  0.20567310658E+03  0.34113394066E+03  0.17300000000E+03 0.  1.
       -6    1    1    2    0  504 -0.23683545992E+03  0.24175384375E+02  0.17795489246E+03  0.34390758648E+03  0.17300000000E+03 0. -1.
        6    1    1    2  502    0  0.55201435089E+02 -0.27825451499E+02  0.13628713869E+03  0.22874579419E+03  0.17300000000E+03 0.  1.
       -6    1    1    2    0  503 -0.20978949931E+02  0.59237126418E+02  0.20518127291E+03  0.27564017893E+03  0.17300000000E+03 0. -1.
</event>
<event>
 6   0  0.4500850E-05  0.4285279E+03  0.7546771E-02  0.1036605E+00
        1   -1    0    0  503    0  0.00000000000E+00  0.00000000000E+00  0.21997002253E+04  0.21997002253E+04  0.00000000000E+00 0.  1.
       -1   -1    0    0    0  501  0.00000000000E+00  0.00000000000E+00 -0.11921350760E+03  0.11921350760E+03  0.00000000000E+00 0. -1.
        6    1    1    2  502    0  0.66406835820E+02 -0.91662965927E+02  0.30767009546E+03  0.37067756178E+03  0.17300000000E+03 0. -1.
       -6    1    1    2    0  501 -0.40335389267E+02 -0.66375572088E+02  0.75289376248E+02  0.20403467934E+03  0.17300000000E+03 0. -1.
        6    1    1    2  503    0  0.34916201055E+02  0.92583782835E+02  0.69898472121E+03  0.72684216885E+03  0.17300000000E+03 0.  1.
       -6    1    1    2    0  502 -0.60987647609E+02  0.65454755180E+02  0.99854252480E+03  0.10173593229E+04  0.17300000000E+03 0.  1.
</event>
<event>
 6   0  0.4500850E-05  0.4577939E+03  0.7546771E-02  0.1055289E+00
       21   -1    0    0  501  503  0.00000000000E+00  0.00000000000E+00  0.90610115522E+02  0.90610115522E+02  0.00000000000E+00 0. -1.
       21   -1    0    0  502  504  0.00000000000E+00  0.00000000000E+00 -0.38258080068E+04  0.38258080068E+04  0.00000000000E+00 0.  1.
        6    1    1    2  501    0 -0.23260768398E+02  0.25804302439E+03 -0.78278357197E+03  0.84250008091E+03  0.17300000000E+03 0.  1.
       -6    1    1    2    0  503 -0.65721271807E+02 -0.10483561253E+03 -0.42512691694E+03  0.47536479332E+03  0.17300000000E+03 0. -1.
        6    1    1    2  502    0  0.17559010088E+02 -0.19639388970E+03 -0.52312636312E+03  0.58520857012E+03  0.17300000000E+03 0. -1.
       -6    1    1    2    0  504  0.71423030117E+02  0.43186477843E+02 -0.20041610392E+04  0.20133446780E+04  0.17300000000E+03 0.  1.
</event>
<event>
 6   0  0.4500850E-05  0.3450468E+03  0.7546771E-02  0.1074161E+00
       21   -1    0    0  504  503  0.00000000000E+00  0.00000000000E+00  0.57356989834E+03  0.57356989834E+03  0.00000000000E+00 0. -1.
       21   -1    0    0  501  504  0.00000000000E+00  0.00000000000E+00 -0.23274647586E+04  0.23274647586E+04  0.00000000000E+00 0.  1.
        6    1    1    2  501    0  0.27043404924E+03 -0.50171238171E+03 -0.17816824668E+04  0.18786088740E+04  0.17300000000E+03 0.  1.
       -6    1    1    2    0  503 -0.13268283960E+03  0.76976078994E+02 -0.13337368127E+02  0.23159649836E+03  0.17300000000E+03 0.  1.
        6    1    1    2  502    0 -0.12200530023E+03  0.19291563112E+03  0.29097196440E+03  0.40828350209E+03  0.17300000000E+03 0. -1.
       -6    1    1    2    0  502 -0.15745909407E+02  0.23182067159E+03 -0.24984698978E+03  0.38254578254E+03  0.17300000000E+03 0. -1.
</event>
<event>
 6   0  0.4500850E-05  0.2344275E+03  0.7546771E-02  0.1135392E+00
       21   -1    0    0  501  503  0.00000000000E+00  0.00000000000E+00  0.99304174375E+03  0.99304174375E+03  0.00000000000E+00 0. -1.
       21   -1    0    0  502  504  0.00000000000E+00  0.00000000000E+00 -0.38528662148E+03  0.38528662148E+03  0.00000000000E+00 0.  1.
        6    1    1    2  501    0  0.22879380352E+02  0.16353285308E+02  0.47334616991E+03  0.50475389305E+03  0.17300000000E+03 0.  1.
       -6    1    1    2    0  504 -0.98210729675E+02  0.18655519103E+02  0.18682038000E+03  0.27354018023E+03  0.17300000000E+03 0. -1.
        6    1    1    2  502    0  0.57325718475E+02 -0.15916076085E+03 -0.22110791620E+03  0.32777445965E+03  0.17300000000E+03 0.  1.
       -6    1    1    2    0  503  0.18005630848E+02  0.12415195644E+03  0.16869648857E+03  0.27225983230E+03  0.17300000000E+03 0. -1.
</event>
<event>
 6   0  0.4500850E-05  0.2075197E+03  0.7546771E-02  0.1148565E+00
       21   -1    0    0  501  503  0.00000000000E+00  0.00000000000E+00  0.22806163754E+04  0.22806163754E+04  0.00000000000E+00 0. -1.
       21   -1    0    0  502  504  0.00000000000E+00  0.00000000000E+00 -0.11468782503E+03  0.11468782503E+03  0.00000000000E+00 0. -1.
        6    1    1    2  501    0  0.36211534773E+02  0.77587406537E+01  0.98298633908E+03  0.99878056455E+03  0.17300000000E+03 0.  1.
       -6    1    1    2    0  504 -0.67496303040E+02  0.77109955898E+02  0.20685516835E+03  0.28847834736E+03  0.17300000000E+03 0.  1.
        6    1    1    2  502    0 -0.13107361705E+03 -0.52938151537E+02  0.73536045208E+03  0.76854846006E+03  0.17300000000E+03 0. -1.
       -6    1    1    2    0  503  0.16235838532E+03 -0.31930545015E+02  0.24072659085E+03  0.33949682845E+03  0.17300000000E+03 0. -1.
</event>
<event>
 6   0  0.4500850E-05  0.2244078E+03  0.7546771E-02  0.1138692E+00
       21   -1    0    0  502  503  0.00000000000E+00  0.00000000000E+00  0.10485838729E+04  0.10485838729E+04  0.00000000000E+00 0. -1.
       21   -1    0    0  501  504  0.00000000000E+00  0.00000000000E+00 -0.22377989316E+03  0.22377989316E+03  0.00000000000E+00 0. -1.
        6    1    1    2  501    0 -0.70994268931E+02 -0.16403210316E+03  0.39625984233E+03  0.46786491611E+03  0.17300000000E+03 0. -1.
       -6    1    1    2    0  503 -0.11127438109E+03  0.11156390502E+03  0.20442873697E+03  0.31072270804E+03  0.17300000000E+03 0. -1.
        6    1    1    2  502    0  0.53930378019E+02  0.34387593420E+02  0.28798472365E+01  0.18446757378E+03  0.17300000000E+03 0. -1.
       -6    1    1    2    0  504  0.12833827200E+03  0.18080604718E+02  0.22123555325E+03  0.30930856818E+03  0.17300000000E+03 0. -1.
</event>
<event>
 6   0  0.4500850E-05  0.2735434E+03  0.7546771E-02  0.1100638E+00
       21   -1    0    0  501  503  0.00000000000E+00  0.00000000000E+00  0.11433222466E+04  0.11433222466E+04  0.00000000000E+00 0. -1.
       21   -1    0    0  503  504  0.00000000000E+00  0.00000000000E+00 -0.43156558945E+03  0.43156558945E+03  0.00000000000E+00 0. -1.
        6    1    1    2  501    0  0.12308373126E+03  0.11744644165E+03  0.26426550404E+03  0.35875970814E+03  0.17300000000E+03 0. -1.
       -6    1    1    2    0  504 -0.26574493267E+03 -0.18780469872E+03  0.35804371342E+03  0.51382416722E+03  0.17300000000E+03 0. -1.
        6    1    1    2  502    0 -0.89044412981E+02  0.15504437520E+03 -0.17274990170E+03  0.30288478718E+03  0.17300000000E+03 0. -1.
       -6    1    1    2    0  502  0.23170561439E+03 -0.84686118133E+02  0.26219734143E+03  0.39941917355E+03  0.17300000000E+03 0. -1.
</event>
<event>
 6   0  0.4500850E-05  0.2071296E+03  0.7546771E-02  0.1144191E+00
       21   -1    0    0  502  503  0.00000000000E+00  0.00000000000E+00  0.12709568360E+04  0.12709568360E+04  0.00000000000E+00 0.  1.
       21   -1    0    0  503  504  0.00000000000E+00  0.00000000000E+00 -0.18444261847E+03  0.18444261847E+03  0.00000000000E+00 0.  1.
        6    1    1    2  501    0 -0.77156198261E+02  0.17594250156E+02  0.19113090877E+03  0.26967139421E+03  0.17300000000E+03 0. -1.
       -6    1    1    2    0  501  0.17113210865E+03 -0.76460369106E+02  0.27855086320E+03  0.37769295736E+03  0.17300000000E+03 0.  1.
        6    1    1    2  502    0 -0.10105960083E+01  0.80333808744E+02  0.57537200298E+03  0.60616539323E+03  0.17300000000E+03 0.  1.
       -6    1    1    2    0  504 -0.92965314378E+02 -0.21467689794E+02  0.41460442579E+02  0.20186970967E+03  0.17300000000E+03 0.  1.
</event>
<event>
 6   0  0.4500850E-05  0.2532764E+03  0.7546771E-02  0.1118886E+00
       21   -1    0    0  501  503  0.00000000000E+00  0.00000000000E+00  0.52141358096E+03  0.52141358096E+03  0.00000000000E+00 0.  1.
       21   -1    0    0  503  504  0.00000000000E+00  0.00000000000E+00 -0.18331065205E+04  0.18331065205E+04  0.00000000000E+00 0.  1.
        6    1    1    2  501    0  0.63543616659E+01  0.61260141372E+02  0.31860575313E+03  0.36773877789E+03  0.17300000000E+03 0.  1.
       -6    1    1    2    0  504 -0.13835709601E+03  0.20708361086E+02 -0.97900938730E+03  0.10039720627E+04  0.17300000000E+03 0.  1.
        6    1    1    2  502    0 -0.13335970249E+03 -0.21273818263E+03 -0.77728570140E+02  0.31466343164E+03  0.17300000000E+03 0.  1.
       -6    1    1    2    0  502  0.26536243684E+03  0.13076968017E+03 -0.57356073527E+03  0.66814582928E+03  0.17300000000E+03 0. -1.
</event>
<event>
 6   0  0.4500850E-05  0.2449723E+03  0.7546771E-02  0.1122539E+00
       21   -1    0    0  502  503  0.00000000000E+00  0.00000000000E+00  0.45719541657E+03  0.45719541657E+03  0.00000000000E+00 0. -1.
       21   -1    0    0  503  504  0.00000000000E+00  0.00000000000E+00 -0.22001459973E+04  0.22001459973E+04  0.00000000000E+00 0. -1.
        6    1    1    2  501    0  0.90834608482E+02  0.76351818412E+02 -0.12126196864E+03  0.24230970123E+03  0.17300000000E+03 0. -1.
       -6    1    1    2    0  504 -0.13251586772E+03  0.15747504648E+03 -0.60546703998E+03  0.66247881624E+03  0.17300000000E+03 0. -1.
        6    1    1    2  502    0  0.10282872908E+03 -0.70083954330E+02  0.32518307148E+03  0.38879112407E+03  0.17300000000E+03 0. -1.
       -6    1    1    2    0  501 -0.61147469837E+02 -0.16374291056E+03 -0.13414046436E+04  0.13637617723E+04  0.17300000000E+03 0. -1.
</event>
<event>
 6   0  0.4500850E-05  0.3622122E+03  0.7546771E-02  0.1072340E+00
       21   -1    0    0  502  503  0.00000000000E+00  0.00000000000E+00  0.10285451815E+04  0.10285451815E+04  0.00000000000E+00 0. -1.
       21   -1    0    0  501  504  0.00000000000E+00  0.00000000000E+00 -0.64264004162E+03  0.64264004162E+03  0.00000000000E+00 0. -1.
        6    1    1    2  501    0  0.20549738653E+03  0.31098606177E+03  0.24813625062E+03  0.48004385774E+03  0.17300000000E+03 0.  1.
       -6    1    1    2    0  503 -0.23527110927E+03 -0.17932763612E+03  0.41280918769E+03  0.53651777358E+03  0.17300000000E+03 0. -1.
        6    1    1    2  502    0  0.17083197104E+03 -0.22376077980E+03 -0.24487695967E+03  0.41127384343E+03  0.17300000000E+03 0. -1.
       -6    1    1    2    0  504 -0.14105824830E+03  0.92102354154E+02 -0.30163338707E+02  0.24334974842E+03  0.17300000000E+03 0.  1.
</event>
<event>
 6   0  0.4500850E-05  0.5444680E+03  0.7546771E-02  0.1032419E+00
       21   -1    0    0  502  503  0.00000000000E+00  0.00000000000E+00  0.27351228168E+03  0.27351228168E+03  0.00000000000E+00 0. -1.
       21   -1    0    0  501  504  0.00000000000E+00  0.00000000000E+00 -0.15069490558E+04  0.15069490558E+04  0.00000000000E+00 0.  1.
        6    1    1    2  501    0  0.68097580135E+02 -0.14880595044E+03 -0.34892483702E+03  0.42244293484E+03  0.17300000000E+03 0.  1.
       -6    1    1    2    0  503 -0.13905469990E+03 -0.16184860918E+03 -0.41507057912E+03  0.49773865382E+03  0.17300000000E+03 0. -1.
        6    1    1    2  502    0 -0.10617532370E+03 -0.87420447010E+02 -0.40155057494E+02  0.22462627309E+03  0.17300000000E+03 0. -1.
       -6    1    1    2    0  504  0.17713244347E+03  0.39807500663E+03 -0.42928630047E+03  0.63565347573E+03  0.17300000000E+03 0.  1.
</event>
<event>
 6   0  0.4500850E-05  0.2961412E+03  0.7546771E-02  0.1096488E+00
       21   -1    0    0  501  503  0.00000000000E+00  0.00000000000E+00  0.95990096653E+03  0.95990096653E+03  0.00000000000E+00 0. -1.
       21   -1    0    0  502  504  0.00000000000E+00  0.00000000000E+00 -0.12246157125E+04  0.12246157125E+04  0.00000000000E+00 0. -1.
        6    1    1    2  501    0  0.43601619088E+02 -0.25043053207E+02  0.53505593270E+03  0.56457249917E+03  0.17300000000E+03 0. -1.
       -6    1    1    2    0  503 -0.23995353012E+03  0.33447382964E+02 -0.94072737380E+03  0.98670837427E+03  0.17300000000E+03 0. -1.
        6    1    1    2  502    0 -0.12648170345E+03 -0.93305769904E+02  0.61351027580E+01  0.23381665358E+03  0.17300000000E+03 0.  1.
       -6    1    1    2    0  504  0.32283361448E+03  0.84901440146E+02  0.13482159242E+03  0.39941915197E+03  0.17300000000E+03 0. -1.
</event>
<event>
 6   0  0.4500850E-05  0.2172598E+03  0.7546771E-02  0.1136736E+00
       21   -1    0    0  502  503  0.00000000000E+00  0.00000000000E+00  0.37835382722E+03  0.37835382722E+03  0.00000000000E+00 0.  1.
       21   -1    0    0  503  504  0.00000000000E+00  0.00000000000E+00 -0.13782877399E+04  0.13782877399E+04  0.00000000000E+00 0.  1.
        6    1    1    2  501    0 -0.99024242256E+02  0.12032285494E+03 -0.82950657320E+02  0.24717038966E+03  0.17300000000E+03 0. -1.
       -6    1    1    2    0  501  0.10153439061E+03 -0.22936206825E+02 -0.37547347248E+03  0.42631517753E+03  0.17300000000E+03 0.  1.
        6    1    1    2  502    0  0.45402085306E+02 -0.20671446660E+03  0.18288209927E+03  0.32888764386E+03  0.17300000000E+03 0.  1.
       -6    1    1    2    0  504 -0.47912233660E+02  0.10932781849E+03 -0.72439188211E+03  0.75426835602E+03  0.17300000000E+03 0.  1.
</event>
<event>
 6   0  0.4500850E-05  0.2235355E+03  0.7546771E-02  0.1137969E+00
       21   -1    0    0  502  503  0.00000000000E+00  0.00000000000E+00  0.26963440302E+03  0.26963440302E+03  0.00000000000E+00 0. -1.
       21   -1    0    0  501  504  0.00000000000E+00  0.00000000000E+00 -0.89003007559E+03  0.89003007559E+03  0.00000000000E+00 0. -1.
        6    1    1    2  501    0 -0.70691791574E+02  0.33713368949E+02  0.27239509948E+02  0.19184606210E+03  0.17300000000E+03 0. -1.
       -6    1    1    2    0  503  0.12070165457E+03 -0.20613087014E+02 -0.14777279258E+03  0.25837876654E+03  0.17300000000E+03 0.  1.
        6    1    1    2  502    0  0.26730910962E+02  0.11726645913E+03 -0.70039776115E+02  0.22203723624E+03  0.17300000000E+03 0. -1.
       -6    1    1    2    0  504 -0.76740773956E+02 -0.13036674107E+03 -0.42982261382E+03  0.48740241373E+03  0.17300000000E+03 0. -1.
</event>
<event>
 6   0  0.4500850E-05  0.2680745E+03  0.7546771E-02  0.1104334E+00
       21   -1    0    0  502  503  0.00000000000E+00  0.00000000000E+00  0.90470474752E+03  0.90470474752E+03  0.00000000000E+00 0.  1.
       21   -1    0    0  501  504  0.00000000000E+00  0.00000000000E+00 -0.39957154591E+03  0.39957154591E+03  0.00000000000E+00 0. -1.
        6    1    1    2  501    0 -0.15412470469E+03  0.12802310736E+03  0.25450755746E+03  0.36721579135E+03  0.17300000000E+03 0.  1.
       -6    1    1    2    0  504 -0.88774123625E+02 -0.13589505436E+03  0.24412848121E+02  0.23848123192E+03  0.17300000000E+03 0. -1.
        6    1    1    2  502    0  0.21665888179E+03 -0.15660170552E+03 -0.60983966021E+02  0.32421167367E+03  0.17300000000E+03 0.  1.
       -6    1    1    2    0  503  0.26239946525E+02  0.16447365252E+03  0.28719676206E+03  0.37436759649E+03  0.17300000000E+03 0. -1.
</event>
<event>
 6   0  0.4500850E-05  0.2324156E+03  0.7546771E-02  0.1128139E+00
       21   -1    0    0  502  503  0.00000000000E+00  0.00000000000E+00  0.42375378034E+03  0.42375378034E+03  0.00000000000E+00 0.  1.
       21   -1    0    0  501  504  0.00000000000E+00  0.00000000000E+00 -0.78417891412E+03  0.78417891412E+03  0.00000000000E+00 0.  1.
        6    1    1    2  501    0  0.12199924797E+03 -0.36445232551E+02 -0.11315233953E+03  0.24278493244E+03  0.17300000000E+03 0.  1.
       -6    1    1    2    0  503 -0.22285588318E+02 -0.22381478323E+03 -0.15173426989E+03  0.32177941714E+03  0.17300000000E+03 0.  1.
        6    1    1    2  502    0 -0.32789294393E+02  0.13774418697E+03  0.18164778120E+03  0.28805123725E+03  0.17300000000E+03 0.  1.
       -6    1    1    2    0  504 -0.66924365260E+02  0.12251582881E+03 -0.27718630557E+03  0.35531710762E+03  0.17300000000E+03 0.  1.
</event>
<event>
 6   0  0.4500850E-05  0.2563256E+03  0.7546771E-02  0.1123032E+00
       21   -1    0    0  501  503  0.00000000000E+00  0.00000000000E+00  0.20054292023E+04  0.20054292023E+04  0.00000000000E+00 0. -1.
       21   -1    0    0  502  504  0.00000000000E+00  0.00000000000E+00 -0.91847942335E+03  0.91847942335E+03  0.00000000000E+00 0. -1.
        6    1    1    2  501    0  0.35785644784E+02 -0.15370973010E+03  0.12639337539E+04  0.12854434363E+04  0.17300000000E+03 0. -1.
       -6    1    1    2    0  503  0.74928191289E+02  0.24323855012E+03  0.30266188775E+03  0.43163925263E+03  0.17300000000E+03 0. -1.
        6    1    1    2  502    0 -0.11780176573E+03 -0.14465811176E+03 -0.79947444793E+03  0.83898248980E+03  0.17300000000E+03 0. -1.
       -6    1    1    2    0  504  0.70879296606E+01  0.55129291741E+02  0.31982858516E+03  0.36784344692E+03  0.17300000000E+03 0. -1.
</event>
<event>
 6   0  0.4500850E-05  0.2443527E+03  0.7546771E-02  0.1121190E+00
       21   -1    0    0  502  503  0.00000000000E+00  0.00000000000E+00  0.26343999915E+03  0.26343999915E+03  0.00000000000E+00 0.  1.
       21   -1    0    0  501  504  0.00000000000E+00  0.00000000000E+00 -0.11064789433E+04  0.11064789433E+04  0.00000000000E+00 0.  1.
        6    1    1    2  501    0 -0.14214103179E+03 -0.47221968187E+02 -0.11904840526E+03  0.25794478090E+03  0.17300000000E+03 0.  1.
       -6    1    1    2    0  504  0.14560168488E+03  0.14632448350E+03 -0.38907264659E+03  0.47319893220E+03  0.17300000000E+03 0.  1.
        6    1    1    2  502    0  0.10278418140E+03 -0.17557637760E+03 -0.32630632572E+03  0.42165918764E+03  0.17300000000E+03 0.  1.
       -6    1    1    2    0  503 -0.10624483449E+03  0.76473862291E+02 -0.86115665348E+01  0.21711604167E+03  0.17300000000E+03 0.  1.
</event>
<event>
 6   0  0.4500850E-05  0.2493329E+03  0.7546771E-02  0.1117620E+00
       21   -1    0    0  504  503  0.00000000000E+00  0.00000000000E+00  0.16338499397E+04  0.16338499397E+04  0.00000000000E+00 0.  1.
       21   -1    0    0  501  504  0.00000000000E+00  0.00000000000E+00 -0.19445706894E+04  0.19445706894E+04  0.00000000000E+00 0. -1.
        6    1    1    2  501    0  0.71635747473E+02 -0.20341939957E+03 -0.81997610972E+03  0.86533285674E+03  0.17300000000E+03 0.  1.
       -6    1    1    2    0  503 -0.13952706883E+02  0.33039897853E+03 -0.24240623925E+03  0.44502578338E+03  0.17300000000E+03 0.  1.
        6    1    1    2  502    0 -0.49970587678E+02 -0.81118672482E+02  0.14926841214E+04  0.15056932573E+04  0.17300000000E+03 0.  1.
       -6    1    1    2    0  502 -0.77124529117E+01 -0.45860906479E+02 -0.74102252220E+03  0.76236873171E+03  0.17300000000E+03 0. -1.
</event>
<event>
 6   0  0.4500850E-05  0.3866290E+03  0.7546771E-02  0.1077053E+00
       21   -1    0    0  502  503  0.00000000000E+00  0.00000000000E+00  0.10840359349E+04  0.10840359349E+04  0.00000000000E+00 0.  1.
       21   -1    0    0  501  504  0.00000000000E+00  0.00000000000E+00 -0.67736671226E+03  0.67736671226E+03  0.00000000000E+00 0.  1.
        6    1    1    2  501    0 -0.31043100975E+02 -0.30430361413E+02 -0.21374970509E+03  0.27840189913E+03  0.17300000000E+03 0.  1.
       -6    1    1    2    0  504  0.19401563968E+03  0.34228692731E+03  0.54008619021E+03  0.69023510625E+03  0.17300000000E+03 0.  1.
        6    1    1    2  502    0  0.18753672603E+03 -0.29705974643E+03  0.88728329332E+02  0.40151741305E+03  0.17300000000E+03 0.  1.
       -6    1    1    2    0  503 -0.35050926473E+03 -0.14796819463E+02 -0.83955917998E+01  0.39124822873E+03  0.17300000000E+03 0.  1.
</event>
<event>
 6   0  0.4500850E-05  0.1894451E+03  0.7546771E-02  0.1159433E+00
       21   -1    0    0  502  503  0.00000000000E+00  0.00000000000E+00  0.44907077774E+03  0.44907077774E+03  0.00000000000E+00 0.  1.
       21   -1    0    0  501  504  0.00000000000E+00  0.00000000000E+00 -0.14244414853E+04  0.14244414853E+04  0.00000000000E+00 0.  1.
        6    1    1    2  501    0  0.62276294753E+01  0.27640127609E+02 -0.83705038661E+03  0.85521056456E+03  0.17300000000E+03 0.  1.
       -6    1    1    2    0  503 -0.98202737819E+02  0.28023943276E+02 -0.46292333595E+03  0.50463465406E+03  0.17300000000E+03 0. -1.
        6    1    1    2  502    0  0.65703587335E+02 -0.80415371915E+02  0.25145738870E+03  0.32240256165E+03  0.17300000000E+03 0.  1.
       -6    1    1    2    0  504  0.26271521009E+02  0.24751301030E+02  0.73145626302E+02  0.19126448276E+03  0.17300000000E+03 0. -1.
</event>
<event>
 6   0  0.4500850E-05  0.2336259E+03  0.7546771E-02  0.1129056E+00
       21   -1    0    0  501  503  0.00000000000E+00  0.00000000000E+00  0.41718671059E+03  0.41718671059E+03  0.00000000000E+00 0.  1.
       21   -1    0    0  503  504  0.00000000000E+00  0.00000000000E+00 -0.59590712187E+03  0.59590712187E+03  0.00000000000E+00 0.  1.
        6    1    1    2  501    0  0.16117696306E+03  0.10989580209E+03  0.71671245789E+02  0.27040870587E+03  0.17300000000E+03 0.  1.
       -6    1    1    2    0  504 -0.63002054090E+02 -0.23838319614E+02 -0.13961004983E+03  0.23228751649E+03  0.17300000000E+03 0.  1.
        6    1    1    2  502    0 -0.44571765993E+02 -0.18902164672E+03 -0.14727544736E+03  0.29888941541E+03  0.17300000000E+03 0.  1.
       -6    1    1    2    0  502 -0.53603142974E+02  0.10296416424E+03  0.36493840126E+02  0.21150819469E+03  0.17300000000E+03 0. -1.
</event>
<event>
 6   0  0.4500850E-05  0.2740799E+03  0.7546771E-02  0.1115864E+00
       21   -1    0    0  502  503  0.00000000000E+00  0.00000000000E+00  0.12009813147E+04  0.12009813147E+04  0.00000000000E+00 0. -1.
       21   -1    0    0  501  504  0.00000000000E+00  0.00000000000E+00 -0.45773147989E+03  0.45773147989E+03  0.00000000000E+00 0.  1.
        6    1    1    2  501    0 -0.18005852799E+03  0.93184339028E+02  0.66738291861E+03  0.71863297628E+03  0.17300000000E+03 0. -1.
       -6    1    1    2    0  504  0.21181424021E+03 -0.31556089325E+02 -0.29413437248E+03  0.40287105655E+03  0.17300000000E+03 0.  1.
        6    1    1    2  502    0 -0.70223790336E+02 -0.46734890148E+02  0.10845711136E+03  0.22092414013E+03  0.17300000000E+03 0. -1.
       -6    1    1    2    0  503  0.38468078119E+02 -0.14893359554E+02  0.26154417732E+03  0.31628462164E+03  0.17300000000E+03 0. -1.
</event>
<event>
 6   0  0.4500850E-05  0.2668535E+03  0.7546771E-02  0.1114187E+00
       21   -1    0    0  504  503  0.00000000000E+00  0.00000000000E+00  0.11659621256E+04  0.11659621256E+04  0.00000000000E+00 0.  1.
       21   -1    0    0  502  504  0.00000000000E+00  0.00000000000E+00 -0.11753576416E+04  0.11753576416E+04  0.00000000000E+00 0.  1.
        6    1    1    2  501    0 -0.20900101824E+03 -0.67320022074E+02 -0.10211185059E+03  0.29760584844E+03  0.17300000000E+03 0.  1.
       -6    1    1    2    0  503 -0.89084233065E+01 -0.81623364469E+02  0.94245158714E+03  0.96170979392E+03  0.17300000000E+03 0.  1.
        6    1    1    2  502    0  0.62770699846E+02  0.22309056761E+03 -0.77452364338E+03  0.82675597142E+03  0.17300000000E+03 0.  1.
       -6    1    1    2    0  501  0.15513874170E+03 -0.74147181066E+02 -0.75211609192E+02  0.25524815336E+03  0.17300000000E+03 0. -1.
</event>
<event>
 6   0  0.4500850E-05  0.5431257E+03  0.7546771E-02  0.1004301E+00
       21   -1    0    0  504  503  0.00000000000E+00  0.00000000000E+00  0.23449756850E+04  0.23449756850E+04  0.00000000000E+00 0.  1.
       21   -1    0    0  502  504  0.00000000000E+00  0.00000000000E+00 -0.47090436894E+03  0.47090436894E+03  0.00000000000E+00 0.  1.
        6    1    1    2  501    0  0.57790078275E+02 -0.18163911879E+02  0.68772885576E+03  0.71173703001E+03  0.17300000000E+03 0.  1.
       -6    1    1    2    0  501 -0.24648556938E+03  0.10836387927E+03 -0.24573823090E+03  0.40350234741E+03  0.17300000000E+03 0.  1.
        6    1    1    2  502    0 -0.97646798901E+02 -0.37305781432E+02 -0.25949882744E+02  0.20378669014E+03  0.17300000000E+03 0.  1.
       -6    1    1    2    0  503  0.28634229000E+03 -0.52894185961E+02  0.14580305739E+04  0.14968539863E+04  0.17300000000E+03 0.  1.
</event>
<event>
 6   0  0.4500850E-05  0.3484847E+03  0.7546771E-02  0.1068540E+00
       21   -1    0    0  502  503  0.00000000000E+00  0.00000000000E+00  0.16192762981E+04  0.16192762981E+04  0.00000000000E+00 0.  1.
       21   -1    0    0  501  504  0.00000000000E+00  0.00000000000E+00 -0.44734004744E+03  0.44734004744E+03  0.00000000000E+00 0.  1.
        6    1    1    2  501    0 -0.68804424066E+02  0.22625325363E+03  0.53890179898E+02  0.29792236412E+03  0.17300000000E+03 0. -1.
       -6    1    1    2    0  504  0.41882201420E+03  0.14148059638E+03  0.18679950401E+03  0.51014869737E+03  0.17300000000E+03 0.  1.
        6    1    1    2  502    0  0.41177624852E+02 -0.13062587574E+03  0.16501230088E+02  0.22126908233E+03  0.17300000000E+03 0.  1.
       -6    1    1    2    0  503 -0.39119521499E+03 -0.23710797428E+03  0.91474533666E+03  0.10372762017E+04  0.17300000000E+03 0.  1.
</event>
<event>
 6   0  0.4500850E-05  0.3186241E+03  0.7546771E-02  0.1095742E+00
       21   -1    0    0  504  503  0.00000000000E+00  0.00000000000E+00  0.31609990217E+03  0.31609990217E+03  0.00000000000E+00 0. -1.
       21   -1    0    0  502  504  0.00000000000E+00  0.00000000000E+00 -0.16124944751E+04  0.16124944751E+04  0.00000000000E+00 0. -1.
        6    1    1    2  501    0 -0.32558318224E+03  0.18048914607E+03 -0.78302765025E+03  0.88410522081E+03  0.17300000000E+03 0. -1.
       -6    1    1    2    0  501  0.40622459570E+01  0.77859913314E+02 -0.37588596930E+03  0.42106760723E+03  0.17300000000E+03 0.  1.
        6    1    1    2  502    0  0.14160992013E+03 -0.79691764408E+02 -0.19976069097E+03  0.31022166341E+03  0.17300000000E+03 0.  1.
       -6    1    1    2    0  503  0.17991101615E+03 -0.17865729498E+03  0.62279737570E+02  0.31319988585E+03  0.17300000000E+03 0. -1.
</event>
<event>
 6   0  0.4500850E-05  0.4376367E+03  0.7546771E-02  0.1046260E+00
       21   -1    0    0  501  503  0.00000000000E+00  0.00000000000E+00  0.30087597046E+03  0.30087597046E+03  0.00000000000E+00 0. -1.
       21   -1    0    0  502  504  0.00000000000E+00  0.00000000000E+00 -0.16134122463E+04  0.16134122463E+04  0.00000000000E+00 0. -1.
        6    1    1    2  501    0 -0.17386091353E+03  0.12768803015E+03 -0.18634602139E+03  0.33344518288E+03  0.17300000000E+03 0. -1.
       -6    1    1    2    0  503 -0.19303604904E+03  0.17522718293E+03 -0.25794553920E+03  0.40550263015E+03  0.17300000000E+03 0. -1.
        6    1    1    2  502    0  0.16507920565E+03 -0.80628387238E+02 -0.77709218788E+03  0.81703938059E+03  0.17300000000E+03 0. -1.
       -6    1    1    2    0  504  0.20181775692E+03 -0.22228682584E+03 -0.91152527401E+02  0.35830102317E+03  0.17300000000E+03 0. -1.
</event>
<event>
 6   0  0.4500850E-05  0.2143398E+03  0.7546771E-02  0.1142017E+00
       21   -1    0    0  504  503  0.00000000000E+00  0.00000000000E+00  0.24805101107E+03  0.24805101107E+03  0.00000000000E+00 0.  1.
       21   -1    0    0  502  504  0.00000000000E+00  0.00000000000E+00 -0.17176211228E+04  0.17176211228E+04  0.00000000000E+00 0.  1.
        6    1    1    2  501    0 -0.49779553514E+02 -0.31778871794E+02 -0.24434375764E+03  0.30515696377E+03  0.17300000000E+03 0.  1.
       -6    1    1    2    0  503 -0.92835492029E+02 -0.34885801381E+02  0.11807832178E+03  0.23174757343E+03  0.17300000000E+03 0.  1.
        6    1    1    2  502    0 -0.52283579741E+02 -0.61311429876E+02 -0.64130766883E+03  0.66910177869E+03  0.17300000000E+03 0.  1.
       -6    1    1    2    0  501  0.19489862528E+03  0.12797610305E+03 -0.70199700703E+03  0.75966581796E+03  0.17300000000E+03 0. -1.
</event>
<event>
 6   0  0.4500850E-05  0.4191878E+03  0.7546771E-02  0.1065595E+00
       21   -1    0    0  502  503  0.00000000000E+00  0.00000000000E+00  0.10882437642E+04  0.10882437642E+04  0.00000000000E+00 0.  1.
       21   -1    0    0  503  504  0.00000000000E+00  0.00000000000E+00 -0.19530309148E+04  0.19530309148E+04  0.00000000000E+00 0.  1.
        6    1    1    2  501    0 -0.32280519026E+03 -0.15561470928E+03 -0.44333130725E+03  0.59572709909E+03  0.17300000000E+03 0. -1.
       -6    1    1    2    0  504  0.29064180565E+03 -0.25313315926E+03 -0.12062261261E+04  0.12780686690E+04  0.17300000000E+03 0.  1.
        6    1    1    2  502    0 -0.26095232727E+01 -0.48427479334E+02  0.62764834196E+03  0.65285792599E+03  0.17300000000E+03 0.  1.
       -6    1    1    2    0  501  0.34772907876E+02  0.45717534788E+03  0.15712194083E+03  0.51462098492E+03  0.17300000000E+03 0.  1.
</event>
<event>
 6   0  0.4500850E-05  0.2505617E+03  0.7546771E-02  0.1122149E+00
       21   -1    0    0  502  503  0.00000000000E+00  0.00000000000E+00  0.14204458029E+04  0.14204458029E+04  0.00000000000E+00 0. -1.
       21   -1    0    0  503  504  0.00000000000E+00  0.00000000000E+00 -0.21462938687E+03  0.21462938687E+03  0.00000000000E+00 0.  1.
        6    1    1    2  501    0 -0.15709124725E+02 -0.33567608266E+02  0.35568106321E+02  0.18046509666E+03  0.17300000000E+03 0.  1.
       -6    1    1    2    0  501  0.16356828169E+03  0.28033777974E+03  0.62140728524E+03  0.72209408506E+03  0.17300000000E+03 0. -1.
        6    1    1    2  502    0 -0.28740679343E+02 -0.13005820695E+03  0.38196368820E+03  0.43996184261E+03  0.17300000000E+03 0. -1.
       -6    1    1    2    0  504 -0.11911847762E+03 -0.11671196452E+03  0.16687733629E+03  0.29255416548E+03  0.17300000000E+03 0. -1.
</event>
<event>
 6   0  0.4500850E-05  0.2681055E+03  0.7546771E-02  0.1115019E+00
       21   -1    0    0  501  503  0.00000000000E+00  0.00000000000E+00  0.36927950515E+03  0.36927950515E+03  0.00000000000E+00 0.  1.
       21   -1    0    0  502  504  0.00000000000E+00  0.00000000000E+00 -0.13614169031E+04  0.13614169031E+04  0.00000000000E+00 0.  1.
        6    1    1    2  501    0 -0.18456511069E+03  0.30486262291E+02 -0.34729256631E+03  0.43073752900E+03  0.17300000000E+03 0.  1.
       -6    1    1    2    0  504 -0.12309960637E+03  0.10077303767E+03 -0.89327205981E+02  0.25143004582E+03  0.17300000000E+03 0. -1.
        6    1    1    2  502    0  0.32393353329E+03 -0.13632201644E+03 -0.71328775475E+03  0.81377211013E+03  0.17300000000E+03 0.  1.
       -6    1    1    2    0  503 -0.16268816221E+02  0.50627164768E+01  0.15777012912E+03  0.23475672327E+03  0.17300000000E+03 0.  1.
</event>
<event>
 6   0  0.4500850E-05  0.4836141E+03  0.7546771E-02  0.1035611E+00
       21   -1    0    0  502  503  0.00000000000E+00  0.00000000000E+00  0.49299787371E+03  0.49299787371E+03  0.00000000000E+00 0. -1.
       21   -1    0    0  501  504  0.00000000000E+00  0.00000000000E+00 -0.12681884671E+04  0.12681884671E+04  0.00000000000E+00 0.  1.
        6    1    1    2  501    0 -0.29949348998E+03 -0.22483014928E+02  0.48512210417E+02  0.34997752936E+03  0.17300000000E+03 0. -1.
       -6    1    1    2    0  503  0.37770867480E+03 -0.10953801068E+03 -0.87252775216E+03  0.97257189816E+03  0.17300000000E+03 0.  1.
        6    1    1    2  502    0 -0.52017612172E+02  0.16900624521E+03  0.73580648733E+02  0.25809311259E+03  0.17300000000E+03 0. -1.
       -6    1    1    2    0  504 -0.26197572655E+02 -0.36985219604E+02 -0.24755700419E+02  0.18054380074E+03  0.17300000000E+03 0.  1.
</event>
<event>
 6   0  0.4500850E-05  0.1926937E+03  0.7546771E-02  0.1160022E+00
       21   -1    0    0  502  503  0.00000000000E+00  0.00000000000E+00  0.74248437414E+02  0.74248437414E+02  0.00000000000E+00 0. -1.
       21   -1    0    0  503  504  0.00000000000E+00  0.00000000000E+00 -0.28094087592E+04  0.28094087592E+04  0.00000000000E+00 0. -1.
        6    1    1    2  501    0  0.42465630351E-01 -0.97520591657E+02 -0.14404365763E+04  0.14540621713E+04  0.17300000000E+03 0.  1.
       -6    1    1    2    0  504  0.38477812141E+02  0.58959070188E+02 -0.69896798967E+03  0.72349289186E+03  0.17300000000E+03 0.  1.
        6    1    1    2  502    0 -0.28001024635E+02  0.66992226917E+02 -0.20619476357E+03  0.27877822077E+03  0.17300000000E+03 0.  1.
       -6    1    1    2    0  501 -0.10519253136E+02 -0.28430705448E+02 -0.38956099225E+03  0.42732391272E+03  0.17300000000E+03 0. -1.
</event>
<event>
 6   0  0.4500850E-05  0.2777327E+03  0.7546771E-02  0.1098728E+00
       21   -1    0    0  504  503  0.00000000000E+00  0.00000000000E+00  0.28404247591E+03  0.28404247591E+03  0.00000000000E+00 0.  1.
       21   -1    0    0  502  504  0.00000000000E+00  0.00000000000E+00 -0.22264287805E+04  0.22264287805E+04  0.00000000000E+00 0.  1.
        6    1    1    2  501    0  0.16740527723E+03 -0.26489383968E+03 -0.57141783640E+03  0.67427043306E+03  0.17300000000E+03 0.  1.
       -6    1    1    2    0  501  0.23611112071E+02 -0.93807856637E+02  0.46009055172E+02  0.20347784090E+03  0.17300000000E+03 0.  1.
        6    1    1    2  502    0 -0.64710949714E+02  0.32412988100E+03 -0.13573804810E+04  0.14077139116E+04  0.17300000000E+03 0.  1.
       -6    1    1    2    0  503 -0.12630543959E+03  0.34571815314E+02 -0.59597042327E+02  0.22500907079E+03  0.17300000000E+03 0. -1.
</event>
<event>
 6   0  0.4500850E-05  0.2541058E+03  0.7546771E-02  0.1113401E+00
       21   -1    0    0  502  503  0.00000000000E+00  0.00000000000E+00  0.12678979109E+04  0.12678979109E+04  0.00000000000E+00 0. -1.
       21   -1    0    0  501  504  0.00000000000E+00  0.00000000000E+00 -0.41581732462E+03  0.41581732462E+03  0.00000000000E+00 0. -1.
        6    1    1    2  501    0  0.16138821873E+03  0.25217915317E+03  0.99523463007E+01  0.34593139730E+03  0.17300000000E+03 0.  1.
       -6    1    1    2    0  503  0.11932076373E+03  0.23777039497E+02 -0.81712333036E+02  0.22673486197E+03  0.17300000000E+03 0. -1.
        6    1    1    2  502    0 -0.18449516490E+03 -0.23101710785E+03  0.80733757381E+03  0.87700075717E+03  0.17300000000E+03 0. -1.
       -6    1    1    2    0  504 -0.96213817561E+02 -0.44939084823E+02  0.11650299925E+03  0.23404821911E+03  0.17300000000E+03 0.  1.
</event>
<event>
 6   0  0.4500850E-05  0.2222812E+03  0.7546771E-02  0.1142102E+00
       21   -1    0    0  502  503  0.00000000000E+00  0.00000000000E+00  0.32134899739E+03  0.32134899739E+03  0.00000000000E+00 0.  1.
       21   -1    0    0  501  504  0.00000000000E+00  0.00000000000E+00 -0.92204538540E+03  0.92204538540E+03  0.00000000000E+00 0.  1.
        6    1    1    2  501    0 -0.14872326596E+03 -0.72742870375E+02 -0.14224249961E+03  0.27851761834E+03  0.17300000000E+03 0. -1.
       -6    1    1    2    0  504  0.30490495080E+02  0.10585310321E+02  0.69677185331E+02  0.18927659454E+03  0.17300000000E+03 0. -1.
        6    1    1    2  502    0  0.13142194747E+02  0.14185438920E+03 -0.51028330483E+03  0.55732704600E+03  0.17300000000E+03 0.  1.
       -6    1    1    2    0  503  0.10509057614E+03 -0.79696829147E+02 -0.17847768901E+02  0.21827312392E+03  0.17300000000E+03 0. -1.
</event>
<event>
 6   0  0.4500850E-05  0.3025511E+03  0.7546771E-02  0.1097026E+00
       21   -1    0    0  501  503  0.00000000000E+00  0.00000000000E+00  0.12182284624E+04  0.12182284624E+04  0.00000000000E+00 0.  1.
       21   -1    0    0  502  504  0.00000000000E+00  0.00000000000E+00 -0.18228871425E+04  0.18228871425E+04  0.00000000000E+00 0.  1.
        6    1    1    2  501    0 -0.61628612520E+02 -0.16870598842E+03 -0.12901113926E+04  0.13139924664E+04  0.17300000000E+03 0.  1.
       -6    1    1    2    0  504  0.65349595308E+01  0.12634245816E+03 -0.38248496905E+03  0.43843913372E+03  0.17300000000E+03 0.  1.
        6    1    1    2  502    0  0.11863496529E+03  0.23426288376E+03  0.94432267454E+03  0.99530280184E+03  0.17300000000E+03 0.  1.
       -6    1    1    2    0  503 -0.63541312302E+02 -0.19189935350E+03  0.12361500702E+03  0.29338120288E+03  0.17300000000E+03 0.  1.
</event>
<event>
 6   0  0.4500850E-05  0.3404298E+03  0.7546771E-02  0.1084626E+00
       21   -1    0    0  501  503  0.00000000000E+00  0.00000000000E+00  0.10996247219E+04  0.10996247219E+04  0.00000000000E+00 0.  1.
       21   -1    0    0  502  504  0.00000000000E+00  0.00000000000E+00 -0.10732226614E+04  0.10732226614E+04  0.00000000000E+00 0. -1.
        6    1    1    2  501    0 -0.67197964752E+02  0.40308418808E+03  0.23908785937E+02  0.44440191178E+03  0.17300000000E+03 0.  1.
       -6    1    1    2    0  503  0.13567215901E+02 -0.26961065980E+03  0.55326065943E+03  0.63945315270E+03  0.17300000000E+03 0.  1.
        6    1    1    2  502    0  0.12303033885E+02 -0.24264919503E+03  0.16677121043E+03  0.34171864614E+03  0.17300000000E+03 0. -1.
       -6    1    1    2    0  504  0.41327714966E+02  0.10917566674E+03 -0.71753859526E+03  0.74727367271E+03  0.17300000000E+03 0. -1.
</event>
<event>
 6   0  0.4500850E-05  0.2777019E+03  0.7546771E-02  0.1102307E+00
       21   -1    0    0  502  503  0.00000000000E+00  0.00000000000E+00  0.10698394206E+04  0.10698394206E+04  0.00000000000E+00 0. -1.
       21   -1    0    0  501  504  0.00000000000E+00  0.00000000000E+00 -0.23437305304E+04  0.23437305304E+04  0.00000000000E+00 0. -1.
        6    1    1    2  501    0  0.25711038397E+03 -0.14675975373E+03  0.26579996928E+01  0.34289975186E+03  0.17300000000E+03 0. -1.
       -6    1    1    2    0  504 -0.57635645294E+02 -0.48472546235E+02 -0.14691885909E+04  0.14812547286E+04  0.17300000000E+03 0. -1.
        6    1    1    2  502    0 -0.13402974188E+03  0.30707421288E+03 -0.63253442370E+03  0.73640161671E+03  0.17300000000E+03 0. -1.
       -6    1    1    2    0  503 -0.65444996795E+02 -0.11184191291E+03  0.82517390518E+03  0.85301385386E+03  0.17300000000E+03 0. -1.
</event>
<event>
 6   0  0.4500850E-05  0.3032342E+03  0.7546771E-02  0.1102540E+00
       21   -1    0    0  502  503  0.00000000000E+00  0.00000000000E+00  0.33679834064E+03  0.33679834064E+03  0.00000000000E+00 0. -1.
       21   -1    0    0  501  504  0.00000000000E+00  0.00000000000E+00 -0.10993268197E+04  0.10993268197E+04  0.00000000000E+00 0. -1.
        6    1    1    2  501    0  0.74551640400E+02  0.18368654140E+03 -0.39794724612E+03  0.47706362603E+03  0.17300000000E+03 0. -1.
       -6    1    1    2    0  504  0.48589436736E+02  0.41775324879E+02  0.92233890721E+01  0.18471649097E+03  0.17300000000E+03 0.  1.
        6    1    1    2  502    0 -0.49120589363E+02  0.14833702870E+03 -0.34654558164E+02  0.23568335703E+03  0.17300000000E+03 0. -1.
       -6    1    1    2    0  503 -0.74020487773E+02 -0.37379889498E+03 -0.33915006385E+03  0.53866168631E+03  0.17300000000E+03 0. -1.
</event>
<event>
 6   0  0.4500850E-05  0.4071037E+03  0.7546771E-02  0.1071517E+00
       21   -1    0    0  501  503  0.00000000000E+00  0.00000000000E+00  0.14407560296E+04  0.14407560296E+04  0.00000000000E+00 0.  1.
       21   -1    0    0  502  504  0.00000000000E+00  0.00000000000E+00 -0.47077308387E+03  0.47077308387E+03  0.00000000000E+00 0.  1.
        6    1    1    2  501    0 -0.90116269543E+02  0.10373970064E+03 -0.17645223783E+03  0.28274946465E+03  0.17300000000E+03 0.  1.
       -6    1    1    2    0  503  0.13507301296E+02  0.12078641367E+02  0.61837727656E+03  0.64237667839E+03  0.17300000000E+03 0. -1.
        6    1    1    2  502    0  0.12643305009E+03 -0.16272818310E+03  0.68946246455E+03  0.74010355205E+03  0.17300000000E+03 0.  1.
       -6    1    1    2    0  504 -0.49824081845E+02  0.46909841084E+02 -0.16140455752E+03  0.24629941841E+03  0.17300000000E+03 0.  1.
</event>
<event>
 6   0  0.4500850E-05  0.3269431E+03  0.7546771E-02  0.1081787E+00
       21   -1    0    0  502  503  0.00000000000E+00  0.00000000000E+00  0.10045411672E+04  0.10045411672E+04  0.00000000000E+00 0.  1.
       21   -1    0    0  501  504  0.00000000000E+00  0.00000000000E+00 -0.23624349292E+03  0.23624349292E+03  0.00000000000E+00 0.  1.
        6    1    1    2  501    0  0.10515484713E+03  0.88178467880E+01  0.22577051556E+03  0.30337538132E+03  0.17300000000E+03 0. -1.
       -6    1    1    2    0  503 -0.67667166545E+02 -0.84471745208E+02  0.29079701152E+03  0.35525515208E+03  0.17300000000E+03 0.  1.
        6    1    1    2  502    0 -0.13096283639E+03  0.15137747430E+03  0.14656830155E+02  0.26497212478E+03  0.17300000000E+03 0.  1.
       -6    1    1    2    0  504  0.93475155806E+02 -0.75723575878E+02  0.23707331704E+03  0.31718200193E+03  0.17300000000E+03 0.  1.
</event>
<event>
 6   0  0.4500850E-05  0.2499318E+03  0.7546771E-02  0.1124722E+00
       21   -1    0    0  502  503  0.00000000000E+00  0.00000000000E+00  0.16405063912E+04  0.16405063912E+04  0.00000000000E+00 0. -1.
       21   -1    0    0  503  504  0.00000000000E+00  0.00000000000E+00 -0.96898993095E+03  0.96898993095E+03  0.00000000000E+00 0. -1.
        6    1    1    2  501    0  0.99929199296E+01 -0.17249018796E+03 -0.19537616368E+03  0.31297534843E+03  0.17300000000E+03 0.  1.
       -6    1    1    2    0  501 -0.12924418285E+03  0.22440718236E+03  0.54592068423E+02  0.31618339019E+03  0.17300000000E+03 0. -1.
        6    1    1    2  502    0  0.16229195856E+03 -0.31506656550E+02  0.13719311747E+04  0.13926433489E+04  0.17300000000E+03 0. -1.
       -6    1    1    2    0  504 -0.43040695642E+02 -0.20410337852E+02 -0.55963061922E+03  0.58769423457E+03  0.17300000000E+03 0. -1.
</event>
<event>
 6   0  0.4500850E-05  0.6236085E+03  0.7546771E-02  0.1004469E+00
       21   -1    0    0  501  503  0.00000000000E+00  0.00000000000E+00  0.72920049976E+03  0.72920049976E+03  0.00000000000E+00 0. -1.
       21   -1    0    0  502  504  0.00000000000E+00  0.00000000000E+00 -0.97769296776E+03  0.97769296776E+03  0.00000000000E+00 0.  1.
        6    1    1    2  501    0  0.27601772863E+03 -0.30827358358E+03  0.22845496978E+03  0.50332798658E+03  0.17300000000E+03 0. -1.
       -6    1    1    2    0  504  0.16501562363E+03 -0.18544559378E+02  0.11443341798E+03  0.26570296173E+03  0.17300000000E+03 0. -1.
        6    1    1    2  502    0 -0.33927360746E+03  0.47747905825E+02 -0.29756443285E+03  0.48565423393E+03  0.17300000000E+03 0. -1.
       -6    1    1    2    0  503 -0.10175974480E+03  0.27907023714E+03 -0.29381642291E+03  0.45220828529E+03  0.17300000000E+03 0.  1.
</event>
<event>
 6   0  0.4500850E-05  0.2230480E+03  0.7546771E-02  0.1131708E+00
       21   -1    0    0  501  503  0.00000000000E+00  0.00000000000E+00  0.30924829060E+03  0.30924829060E+03  0.00000000000E+00 0.  1.
       21   -1    0    0  502  504  0.00000000000E+00  0.00000000000E+00 -0.11199033196E+04  0.11199033196E+04  0.00000000000E+00 0. -1.
        6    1    1    2  501    0  0.13139584567E+01  0.12210592689E+03  0.70480005906E+02  0.22317709358E+03  0.17300000000E+03 0. -1.
       -6    1    1    2    0  503 -0.39506317266E+02 -0.19150930740E+03 -0.12593279976E+03  0.28987002946E+03  0.17300000000E+03 0.  1.
        6    1    1    2  502    0 -0.10687107375E+03 -0.95330877261E+02 -0.23176891236E+03  0.32273089611E+03  0.17300000000E+03 0.  1.
       -6    1    1    2    0  504  0.14506343256E+03  0.16473425777E+03 -0.52343332274E+03  0.59337359101E+03  0.17300000000E+03 0. -1.
</event>
<event>
 6   0  0.4500850E-05  0.3669715E+03  0.7546771E-02  0.1063955E+00
       21   -1    0    0  502  503  0.00000000000E+00  0.00000000000E+00  0.79185277905E+03  0.79185277905E+03  0.00000000000E+00 0. -1.
       21   -1    0    0  501  504  0.00000000000E+00  0.00000000000E+00 -0.11781658678E+04  0.11781658678E+04  0.00000000000E+00 0. -1.
        6    1    1    2  501    0 -0.31431880299E+03  0.31060261387E+02  0.13741591539E+03  0.38545192120E+03  0.17300000000E+03 0. -1.
       -6    1    1    2    0  503 -0.16278149876E+03 -0.18892302235E+03  0.34522067137E+03  0.45966948632E+03  0.17300000000E+03 0.  1.
        6    1    1    2  502    0  0.14354575744E+03 -0.86822762509E+02 -0.17163055436E+03  0.29585405821E+03  0.17300000000E+03 0. -1.
       -6    1    1    2    0  504  0.33355454431E+03  0.24468552348E+03 -0.69731912116E+03  0.82904318112E+03  0.17300000000E+03 0. -1.
</event>
<event>
 6   0  0.4500850E-05  0.2162536E+03  0.7546771E-02  0.1137150E+00
       21   -1    0    0  502  503  0.00000000000E+00  0.00000000000E+00  0.48688873625E+03  0.48688873625E+03  0.00000000000E+00 0. -1.
       21   -1    0    0  503  504  0.00000000000E+00  0.00000000000E+00 -0.10119762158E+04  0.10119762158E+04  0.00000000000E+00 0. -1.
        6    1    1    2  501    0 -0.29223855614E+02  0.13573089725E+02  0.40702195909E+02  0.18062096017E+03  0.17300000000E+03 0.  1.
       -6    1    1    2    0  501  0.11949571699E+03  0.15503603856E+03  0.96197066598E+02  0.27838512039E+03  0.17300000000E+03 0. -1.
        6    1    1    2  502    0  0.46977673330E+02  0.17185128840E+02  0.11318976280E+03  0.21270437900E+03  0.17300000000E+03 0. -1.
       -6    1    1    2    0  504 -0.13724953471E+03 -0.18579425713E+03 -0.77517650484E+03  0.82715449247E+03  0.17300000000E+03 0. -1.
</event>
<event>
 6   0  0.4500850E-05  0.3810101E+03  0.7546771E-02  0.1072909E+00
       21   -1    0    0  504  503  0.00000000000E+00  0.00000000000E+00  0.45390151060E+03  0.45390151060E+03  0.00000000000E+00 0.  1.
       21   -1    0    0  501  504  0.00000000000E+00  0.00000000000E+00 -0.12230906503E+04  0.12230906503E+04  0.00000000000E+00 0.  1.
        6    1    1    2  501    0 -0.37733736789E+02  0.10772377706E+02 -0.43813828560E+03  0.47268809624E+03  0.17300000000E+03 0.  1.
       -6    1    1    2    0  503 -0.89435739892E+02  0.61616355270E+02  0.32560720697E+03  0.38437531143E+03  0.17300000000E+03 0.  1.
        6    1    1    2  502    0  0.19937453538E+03 -0.89195863247E+02 -0.26098013691E+03  0.38176660310E+03  0.17300000000E+03 0.  1.
       -6    1    1    2    0  502 -0.72205058702E+02  0.16807130271E+02 -0.39567792420E+03  0.43816215015E+03  0.17300000000E+03 0. -1.
</event>
<event>
 6   0  0.4500850E-05  0.6643289E+03  0.7546771E-02  0.9784600E-01
       21   -1    0    0  501  503  0.00000000000E+00  0.00000000000E+00  0.37566382177E+03  0.37566382177E+03  0.00000000000E+00 0. -1.
       21   -1    0    0  502  504  0.00000000000E+00  0.00000000000E+00 -0.12115939507E+04  0.12115939507E+04  0.00000000000E+00 0. -1.
        6    1    1    2  501    0  0.25861784101E+03  0.28161111708E+03 -0.13526677881E+03  0.44092415493E+03  0.17300000000E+03 0. -1.
       -6    1    1    2    0  503 -0.20816327159E+03 -0.29177707097E+03 -0.28512535264E+03  0.48958275449E+03  0.17300000000E+03 0. -1.
        6    1    1    2  502    0 -0.16356732783E+03 -0.98508021464E+02 -0.30234331467E+03  0.39723869518E+03  0.17300000000E+03 0. -1.
       -6    1    1    2    0  504  0.11311275841E+03  0.10867397535E+03 -0.11319468278E+03  0.25951216781E+03  0.17300000000E+03 0. -1.
</event>
<event>
 6   0  0.4500850E-05  0.2544187E+03  0.7546771E-02  0.1119692E+00
       21   -1    0    0  502  503  0.00000000000E+00  0.00000000000E+00  0.13006651396E+04  0.13006651396E+04  0.00000000000E+00 0.  1.
       21   -1    0    0  501  504  0.00000000000E+00  0.00000000000E+00 -0.49160034890E+03  0.49160034890E+03  0.00000000000E+00 0.  1.
        6    1    1    2  501    0 -0.19027429041E+03  0.31550750511E+02 -0.37207873842E+02  0.26175022698E+03  0.17300000000E+03 0.  1.
       -6    1    1    2    0  504  0.22349721137E+03  0.16007272547E+03  0.18462791181E+03  0.37361845076E+03  0.17300000000E+03 0. -1.
        6    1    1    2  502    0 -0.71995898040E+02 -0.32760108373E+02  0.83883726379E+03  0.86013579693E+03  0.17300000000E+03 0.  1.
       -6    1    1    2    0  503  0.38772977078E+02 -0.15886336761E+03 -0.17719251109E+03  0.29676101379E+03  0.17300000000E+03 0.  1.
</event>
<event>
 6   0  0.4500850E-05  0.2847720E+03  0.7546771E-02  0.1102104E+00
       21   -1    0    0  504  503  0.00000000000E+00  0.00000000000E+00  0.22651569854E+04  0.22651569854E+04  0.00000000000E+00 0. -1.
       21   -1    0    0  502  504  0.00000000000E+00  0.00000000000E+00 -0.90471313504E+03  0.90471313504E+03  0.00000000000E+00 0.  1.
        6    1    1    2  501    0 -0.61750318613E+02 -0.15625173950E+03  0.14275757219E+03  0.28024352332E+03  0.17300000000E+03 0.  1.
       -6    1    1    2    0  501 -0.13358030648E+03  0.26099984955E+03 -0.70314714562E+03  0.78122309754E+03  0.17300000000E+03 0.  1.
        6    1    1    2  502    0  0.64958586798E+02  0.35540209984E+02  0.18997759635E+02  0.18913656282E+03  0.17300000000E+03 0. -1.
       -6    1    1    2    0  503  0.13037203829E+03 -0.14028832004E+03  0.19018356642E+04  0.19192669368E+04  0.17300000000E+03 0. -1.
</event>
<event>
 6   0  0.4500850E-05  0.3054922E+03  0.7546771E-02  0.1086399E+00
       21   -1    0    0  502  503  0.00000000000E+00  0.00000000000E+00  0.14234985700E+04  0.14234985700E+04  0.00000000000E+00 0.  1.
       21   -1    0    0  503  504  0.00000000000E+00  0.00000000000E+00 -0.25936757656E+04  0.25936757656E+04  0.00000000000E+00 0. -1.
        6    1    1    2  501    0 -0.13901397029E+03  0.55137737106E+02 -0.40463111187E+03  0.46477993790E+03  0.17300000000E+03 0.  1.
       -6    1    1    2    0  501  0.13200200538E+03  0.13166892700E+03  0.39292433215E+03  0.46805957586E+03  0.17300000000E+03 0.  1.
        6    1    1    2  502    0  0.19989951212E+03 -0.17280334109E+03  0.92878332713E+03  0.98101390326E+03  0.17300000000E+03 0.  1.
       -6    1    1    2    0  504 -0.19288754721E+03 -0.14003323020E+02 -0.20872537430E+04  0.21033209185E+04  0.17300000000E+03 0. -1.
</event>
<event>
 6   0  0.4500850E-05  0.2267650E+03  0.7546771E-02  0.1129055E+00
       21   -1    0    0  502  503  0.00000000000E+00  0.00000000000E+00  0.51597079552E+03  0.51597079552E+03  0.00000000000E+00 0. -1.
       21   -1    0    0  501  504  0.00000000000E+00  0.00000000000E+00 -0.73109264416E+03  0.73109264416E+03  0.00000000000E+00 0.  1.
        6    1    1    2  501    0  0.10810617860E+03  0.75254437194E+02 -0.25758551173E+03  0.33708970916E+03  0.17300000000E+03 0. -1.
       -6    1    1    2    0  503 -0.13090498669E+03 -0.17669296092E+03 -0.61185105427E+02  0.28640728884E+03  0.17300000000E+03 0. -1.
        6    1    1    2  502    0  0.10686642324E+03  0.40320268109E+02 -0.18061154003E+03  0.27494669452E+03  0.17300000000E+03 0.  1.
       -6    1    1    2    0  504 -0.84067615153E+02  0.61118255613E+02  0.28426030855E+03  0.34861974715E+03  0.17300000000E+03 0. -1.
</event>
<event>
 6   0  0.4500850E-05  0.7952223E+03  0.7546771E-02  0.9902143E-01
       21   -1    0    0  504  503  0.00000000000E+00  0.00000000000E+00  0.69365130701E+03  0.69365130701E+03  0.00000000000E+00 0.  1.
       21   -1    0    0  502  504  0.00000000000E+00  0.00000000000E+00 -0.17058847499E+04  0.17058847499E+04  0.00000000000E+00 0.  1.
        6    1    1    2  501    0  0.19927712698E+03  0.74065364791E+03  0.17401582708E+03  0.80528858652E+03  0.17300000000E+03 0.  1.
       -6    1    1    2    0  501 -0.16769055569E+03 -0.62684114325E+02 -0.49372604893E+03  0.55294107466E+03  0.17300000000E+03 0.  1.
        6    1    1    2  502    0 -0.77847447029E+01 -0.18866041043E+03 -0.26451576776E+03  0.36817243800E+03  0.17300000000E+03 0.  1.
       -6    1    1    2    0  503 -0.23801826594E+02 -0.48930912316E+03 -0.42800745324E+03  0.67313395768E+03  0.17300000000E+03 0.  1.
</event>
<event>
 6   0  0.4500850E-05  0.5652483E+03  0.7546771E-02  0.1034053E+00
       21   -1    0    0  502  503  0.00000000000E+00  0.00000000000E+00  0.67503621205E+03  0.67503621205E+03  0.00000000000E+00 0.  1.
       21   -1    0    0  501  504  0.00000000000E+00  0.00000000000E+00 -0.14559041968E+04  0.14559041968E+04  0.00000000000E+00 0. -1.
        6    1    1    2  501    0  0.23311109973E+03 -0.60932418995E+02 -0.56298298438E+03  0.63634297765E+03  0.17300000000E+03 0. -1.
       -6    1    1    2    0  503 -0.69991785127E+02  0.24547002361E+02 -0.19865061514E+03  0.27366489034E+03  0.17300000000E+03 0.  1.
        6    1    1    2  502    0 -0.59072487819E+03  0.11677574655E+02  0.27391067707E+03  0.67383106672E+03  0.17300000000E+03 0.  1.
       -6    1    1    2    0  504  0.42760556359E+03  0.24707841979E+02 -0.29314506234E+03  0.54710147418E+03  0.17300000000E+03 0. -1.
</event>
<event>
 6   0  0.4500850E-05  0.2809350E+03  0.7546771E-02  0.1096674E+00
       21   -1    0    0  504  503  0.00000000000E+00  0.00000000000E+00  0.14924832202E+04  0.14924832202E+04  0.00000000000E+00 0. -1.
       21   -1    0    0  502  504  0.00000000000E+00  0.00000000000E+00 -0.23172308744E+04  0.23172308744E+04  0.00000000000E+00 0.  1.
        6    1    1    2  501    0  0.24061314854E+03 -0.60054759155E+02 -0.43627344306E+02  0.30550549343E+03  0.17300000000E+03 0.  1.
       -6    1    1    2    0  501 -0.24245781794E+01 -0.16982165737E+03 -0.15149018451E+04  0.15341779148E+04  0.17300000000E+03 0.  1.
        6    1    1    2  502    0 -0.30059532588E+03  0.94056964033E+02 -0.55497134823E+03  0.66115539761E+03  0.17300000000E+03 0.  1.
       -6    1    1    2    0  503  0.62406755528E+02  0.13581945249E+03  0.12887528834E+04  0.13088752887E+04  0.17300000000E+03 0. -1.
</event>
<event>
 6   0  0.4500850E-05  0.2334204E+03  0.7546771E-02  0.1133685E+00
       21   -1    0    0  502  503  0.00000000000E+00  0.00000000000E+00  0.74939401211E+03  0.74939401211E+03  0.00000000000E+00 0.  1.
       21   -1    0    0  501  504  0.00000000000E+00  0.00000000000E+00 -0.13867430121E+04  0.13867430121E+04  0.00000000000E+00 0. -1.
        6    1    1    2  501    0  0.12757324277E+03  0.71014732014E+02 -0.51068430815E+03  0.55861031769E+03  0.17300000000E+03 0.  1.
       -6    1    1    2    0  503 -0.69609359076E+02 -0.16982187524E+03 -0.71601066238E+03  0.75913450773E+03  0.17300000000E+03 0. -1.
        6    1    1    2  502    0  0.73184404944E+01  0.90721940271E+02 -0.53557724115E+01  0.19555488824E+03  0.17300000000E+03 0.  1.
       -6    1    1    2    0  504 -0.65282324193E+02  0.80852029580E+01  0.59470174295E+03  0.62283731056E+03  0.17300000000E+03 0.  1.
</event>
<event>
 6   0  0.4500850E-05  0.4604044E+03  0.7546771E-02  0.1024664E+00
        2   -1    0    0  502    0  0.00000000000E+00  0.00000000000E+00  0.27430463744E+04  0.27430463744E+04  0.00000000000E+00 0.  1.
       -2   -1    0    0    0  501  0.00000000000E+00  0.00000000000E+00 -0.93851391682E+02  0.93851391682E+02  0.00000000000E+00 0. -1.
        6    1    1    2  502    0  0.15172878679E+03  0.22205708130E+03  0.12241441078E+04  0.12652228139E+04  0.17300000000E+03 0.  1.
       -6    1    1    2    0  503 -0.50390962078E+02 -0.18535296219E+03  0.46734881004E+03  0.53407759726E+03  0.17300000000E+03 0. -1.
        6    1    1    2  503    0 -0.15931607739E+02  0.43601536210E+02  0.32253041137E+03  0.36893058472E+03  0.17300000000E+03 0.  1.
       -6    1    1    2    0  501 -0.85406216975E+02 -0.80305655318E+02  0.63517165347E+03  0.66866677018E+03  0.17300000000E+03 0.  1.
</event>
<event>
 6   0  0.4500850E-05  0.2310525E+03  0.7546771E-02  0.1127151E+00
       21   -1    0    0  502  503  0.00000000000E+00  0.00000000000E+00  0.19404978385E+03  0.19404978385E+03  0.00000000000E+00 0. -1.
       21   -1    0    0  501  504  0.00000000000E+00  0.00000000000E+00 -0.13895697820E+04  0.13895697820E+04  0.00000000000E+00 0. -1.
        6    1    1    2  501    0  0.17792959322E+03 -0.12022477005E+03 -0.17587716089E+03  0.32706988733E+03  0.17300000000E+03 0. -1.
       -6    1    1    2    0  503  0.42945943380E+02 -0.25518849451E+02 -0.70875852039E+02  0.19351473363E+03  0.17300000000E+03 0. -1.
        6    1    1    2  502    0 -0.20626013908E+03  0.72691042551E+02 -0.67888423058E+03  0.73392099791E+03  0.17300000000E+03 0. -1.
       -6    1    1    2    0  504 -0.14615397523E+02  0.73052576946E+02 -0.26988275469E+03  0.32911394702E+03  0.17300000000E+03 0.  1.
</event>
<event>
 6   0  0.4500850E-05  0.1975198E+03  0.7546771E-02  0.1153218E+00
       21   -1    0    0  504  503  0.00000000000E+00  0.00000000000E+00  0.11758865281E+04  0.11758865281E+04  0.00000000000E+00 0. -1.
       21   -1    0    0  502  504  0.00000000000E+00  0.00000000000E+00 -0.23977567889E+03  0.23977567889E+03  0.00000000000E+00 0. -1.
        6    1    1    2  501    0  0.39340952481E+02  0.73601768487E+02  0.85908907541E+02  0.21041452246E+03  0.17300000000E+03 0. -1.
       -6    1    1    2    0  503  0.22721685505E+02  0.52135947907E+02  0.74255093567E+03  0.76455563834E+03  0.17300000000E+03 0. -1.
        6    1    1    2  502    0 -0.59480852328E+00  0.37180270178E+02  0.78246149640E+02  0.19347916224E+03  0.17300000000E+03 0. -1.
       -6    1    1    2    0  501 -0.61467829463E+02 -0.16291798657E+03  0.29404856340E+02  0.24721288394E+03  0.17300000000E+03 0. -1.
</event>
<event>
 6   0  0.4500850E-05  0.3085516E+03  0.7546771E-02  0.1087510E+00
       21   -1    0    0  502  503  0.00000000000E+00  0.00000000000E+00  0.27675545029E+04  0.27675545029E+04  0.00000000000E+00 0. -1.
       21   -1    0    0  501  504  0.00000000000E+00  0.00000000000E+00 -0.18941810916E+03  0.18941810916E+03  0.00000000000E+00 0.  1.
        6    1    1    2  501    0 -0.13575559440E+03  0.12237563125E+03  0.53664502534E+03  0.59272443830E+03  0.17300000000E+03 0. -1.
       -6    1    1    2    0  504  0.31807253505E+03 -0.93739955589E+02  0.24304316795E+03  0.44604517520E+03  0.17300000000E+03 0.  1.
        6    1    1    2  502    0  0.61927595520E+02  0.11398064372E+03  0.23236775405E+03  0.31741201513E+03  0.17300000000E+03 0.  1.
       -6    1    1    2    0  503 -0.24424453617E+03 -0.14261631938E+03  0.15660804464E+04  0.16007909834E+04  0.17300000000E+03 0. -1.
</event>
<event>
 6   0  0.4500850E-05  0.4103181E+03  0.7546771E-02  0.1051656E+00
       21   -1    0    0  502  503  0.00000000000E+00  0.00000000000E+00  0.21958284729E+04  0.21958284729E+04  0.00000000000E+00 0.  1.
       21   -1    0    0  501  504  0.00000000000E+00  0.00000000000E+00 -0.85237409484E+03  0.85237409484E+03  0.00000000000E+00 0. -1.
        6    1    1    2  501    0 -0.23764020006E+03  0.21400191180E+03 -0.26380421154E+03  0.44921191543E+03  0.17300000000E+03 0. -1.
       -6    1    1    2    0  503  0.33240729927E+02 -0.54334245774E+03 -0.14710017336E+03  0.58982491768E+03  0.17300000000E+03 0. -1.
        6    1    1    2  502    0 -0.19691115081E+03 -0.42874330683E+02  0.14960894632E+03  0.30483445731E+03  0.17300000000E+03 0.  1.
       -6    1    1    2    0  504  0.40131062094E+03  0.37221487662E+03  0.16047498167E+04  0.17043312773E+04  0.17300000000E+03 0.  1.
</event>
<event>
 6   0  0.4500850E-05  0.2151606E+03  0.7546771E-02  0.1138378E+00
       21   -1    0    0  504  503  0.00000000000E+00  0.00000000000E+00  0.91320967702E+03  0.91320967702E+03  0.00000000000E+00 0. -1.
       21   -1    0    0  502  504  0.00000000000E+00  0.00000000000E+00 -0.12679211353E+04  0.12679211353E+04  0.00000000000E+00 0. -1.
        6    1    1    2  501    0 -0.19573700099E+02  0.38070445579E+01  0.34908446834E+03  0.39011099621E+03  0.17300000000E+03 0.  1.
       -6    1    1    2    0  501 -0.90661559858E+02  0.19760178276E+03 -0.11441542361E+03  0.30047607583E+03  0.17300000000E+03 0. -1.
        6    1    1    2  502    0 -0.83092461831E+01 -0.39732321887E+02 -0.99247140281E+03  0.10082540287E+04  0.17300000000E+03 0. -1.
       -6    1    1    2    0  503  0.11854450614E+03 -0.16167650543E+03  0.40309089983E+03  0.48228971156E+03  0.17300000000E+03 0. -1.
</event>
<event>
 6   0  0.4500850E-05  0.2306113E+03  0.7546771E-02  0.1129948E+00
       21   -1    0    0  501  503  0.00000000000E+00  0.00000000000E+00  0.27628265841E+03  0.27628265841E+03  0.00000000000E+00 0. -1.
       21   -1    0    0  502  504  0.00000000000E+00  0.00000000000E+00 -0.11865637641E+04  0.11865637641E+04  0.00000000000E+00 0.  1.
        6    1    1    2  501    0  0.32546244384E+02 -0.18270498100E+03 -0.28298561786E+03  0.38006608376E+03  0.17300000000E+03 0.  1.
       -6    1    1    2    0  504  0.54703005088E+01 -0.26680922427E+02 -0.29994130616E+03  0.34732633495E+03  0.17300000000E+03 0. -1.
        6    1    1    2  502    0  0.32294919160E+02  0.25288523602E+03 -0.42129900516E+03  0.52193462823E+03  0.17300000000E+03 0.  1.
       -6    1    1    2    0  503 -0.70311464053E+02 -0.43499332590E+02  0.93944823436E+02  0.21351937562E+03  0.17300000000E+03 0. -1.
</event>
<event>
 6   0  0.4500850E-05  0.5514868E+03  0.7546771E-02  0.1024220E+00
       21   -1    0    0  504  503  0.00000000000E+00  0.00000000000E+00  0.56568800859E+03  0.56568800859E+03  0.00000000000E+00 0. -1.
       21   -1    0    0  501  504  0.00000000000E+00  0.00000000000E+00 -0.17253835623E+04  0.17253835623E+04  0.00000000000E+00 0. -1.
        6    1    1    2  501    0  0.10420203097E+03  0.22548635531E+02 -0.56042040666E+03  0.59612627557E+03  0.17300000000E+03 0.  1.
       -6    1    1    2    0  503 -0.21864494571E+03 -0.22732516091E+00  0.35485177664E+03  0.45128089628E+03  0.17300000000E+03 0. -1.
        6    1    1    2  502    0 -0.17599449508E+03  0.11313443322E+03 -0.59745366437E+02  0.27797836443E+03  0.17300000000E+03 0.  1.
       -6    1    1    2    0  502  0.29043740982E+03 -0.13545574359E+03 -0.89438155723E+03  0.96568603459E+03  0.17300000000E+03 0. -1.
</event>
<event>
 6   0  0.4500850E-05  0.5360152E+03  0.7546771E-02  0.1031460E+00
       21   -1    0    0  502  503  0.00000000000E+00  0.00000000000E+00  0.13737585310E+04  0.13737585310E+04  0.00000000000E+00 0.  1.
       21   -1    0    0  501  504  0.00000000000E+00  0.00000000000E+00 -0.67541450547E+03  0.67541450547E+03  0.00000000000E+00 0. -1.
        6    1    1    2  501    0  0.16508628576E+03  0.39048970454E+03  0.94342955502E+03  0.10486772699E+04  0.17300000000E+03 0.  1.
       -6    1    1    2    0  504  0.11244245562E+03  0.19467250362E+02 -0.26782050219E+03  0.33864302895E+03  0.17300000000E+03 0. -1.
        6    1    1    2  502    0 -0.27985208347E+03 -0.32009028803E+03 -0.29629668915E+02  0.45998032392E+03  0.17300000000E+03 0. -1.
       -6    1    1    2    0  503  0.23233420885E+01 -0.89866666867E+02  0.52364641627E+02  0.20187241373E+03  0.17300000000E+03 0.  1.
</event>
<event>
 6   0  0.4500850E-05  0.3461089E+03  0.7546771E-02  0.1087862E+00
       21   -1    0    0  501  503  0.00000000000E+00  0.00000000000E+00  0.54405704253E+03  0.54405704253E+03  0.00000000000E+00 0. -1.
       21   -1    0    0  502  504  0.00000000000E+00  0.00000000000E+00 -0.11428000557E+04  0.11428000557E+04  0.00000000000E+00 0. -1.
        6    1    1    2  501    0  0.24518603107E+02  0.51650726283E+02  0.84326737390E+02  0.20077090940E+03  0.17300000000E+03 0. -1.
       -6    1    1    2    0  503 -0.92732647862E+02  0.19631658963E+02  0.21352482325E+01  0.19727722955E+03  0.17300000000E+03 0. -1.
        6    1    1    2  502    0 -0.44458477526E+02  0.21770781676E+03  0.19307348608E+03  0.34143757955E+03  0.17300000000E+03 0. -1.
       -6    1    1    2    0  504  0.11267252228E+03 -0.28899020201E+03 -0.87827848488E+03  0.94737137973E+03  0.17300000000E+03 0. -1.
</event>
<event>
 6   0  0.4500850E-05  0.2609856E+03  0.7546771E-02  0.1118896E+00
       21   -1    0    0  501  503  0.00000000000E+00  0.00000000000E+00  0.13547712454E+04  0.13547712454E+04  0.00000000000E+00 0.  1.
       21   -1    0    0  502  504  0.00000000000E+00  0.00000000000E+00 -0.21295917672E+03  0.21295917672E+03  0.00000000000E+00 0. -1.
        6    1    1    2  501    0 -0.10938065881E+03 -0.25017161067E+03  0.29306755990E+03  0.43631130855E+03  0.17300000000E+03 0. -1.
       -6    1    1    2    0  504  0.17772098053E+03  0.62348314460E+02  0.58523790110E+03  0.63867398579E+03  0.17300000000E+03 0.  1.
        6    1    1    2  502    0  0.23512182352E+02  0.77145156125E+02  0.10877930218E+03  0.21969554937E+03  0.17300000000E+03 0. -1.
       -6    1    1    2    0  503 -0.91852504072E+02  0.11067814008E+03  0.15472730549E+03  0.27304957839E+03  0.17300000000E+03 0. -1.
</event>
<event>
 6   0  0.4500850E-05  0.2487538E+03  0.7546771E-02  0.1118454E+00
       21   -1    0    0  501  503  0.00000000000E+00  0.00000000000E+00  0.10823629959E+04  0.10823629959E+04  0.00000000000E+00 0. -1.
       21   -1    0    0  503  504  0.00000000000E+00  0.00000000000E+00 -0.11284677691E+04  0.11284677691E+04  0.00000000000E+00 0. -1.
        6    1    1    2  501    0 -0.35219941712E+01  0.11969557949E+03 -0.48262060540E+02  0.21586491767E+03  0.17300000000E+03 0. -1.
       -6    1    1    2    0  504 -0.10512741820E+03  0.11571475069E+03 -0.73415944418E+03  0.77029914129E+03  0.17300000000E+03 0. -1.
        6    1    1    2  502    0 -0.50016318817E+00  0.90796525170E+02 -0.15781498301E+03  0.25115498802E+03  0.17300000000E+03 0. -1.
       -6    1    1    2    0  502  0.10914957556E+03 -0.32620685535E+03  0.89413171454E+03  0.97351171810E+03  0.17300000000E+03 0. -1.
</event>
<event>
 6   0  0.4500850E-05  0.3447047E+03  0.7546771E-02  0.1082913E+00
       21   -1    0    0  501  503  0.00000000000E+00  0.00000000000E+00  0.18119606495E+04  0.18119606495E+04  0.00000000000E+00 0.  1.
       21   -1    0    0  503  504  0.00000000000E+00  0.00000000000E+00 -0.10053788544E+04  0.10053788544E+04  0.00000000000E+00 0. -1.
        6    1    1    2  501    0 -0.11719864192E+03 -0.25037731045E+02  0.97451206514E+03  0.99697802120E+03  0.17300000000E+03 0.  1.
       -6    1    1    2    0  504 -0.19207998827E+03  0.20638908503E+03 -0.72508979430E+03  0.79697891197E+03  0.17300000000E+03 0. -1.
        6    1    1    2  502    0  0.30065438112E+03 -0.43139936933E+03  0.33998743765E+03  0.64962984115E+03  0.17300000000E+03 0. -1.
       -6    1    1    2    0  502  0.86242490684E+01  0.25004801535E+03  0.21717208665E+03  0.37375272959E+03  0.17300000000E+03 0. -1.
</event>
<event>
 6   0  0.4500850E-05  0.2842377E+03  0.7546771E-02  0.1097859E+00
       21   -1    0    0  502  503  0.00000000000E+00  0.00000000000E+00  0.40636709328E+03  0.40636709328E+03  0.00000000000E+00 0. -1.
       21   -1    0    0  501  504  0.00000000000E+00  0.00000000000E+00 -0.12424254950E+04  0.12424254950E+04  0.00000000000E+00 0. -1.
        6    1    1    2  501    0 -0.10235468100E+03 -0.68523821540E+02 -0.12296986562E+02  0.21272567010E+03  0.17300000000E+03 0.  1.
       -6    1    1    2    0  504 -0.28073394849E+03 -0.24481167117E+03 -0.41292822979E+03  0.58239421969E+03  0.17300000000E+03 0. -1.
        6    1    1    2  502    0  0.10388526552E+03  0.14356448371E+03 -0.41572844711E+03  0.48390293563E+03  0.17300000000E+03 0.  1.
       -6    1    1    2    0  503  0.27920336398E+03  0.16977100900E+03  0.48952617207E+01  0.36976976288E+03  0.17300000000E+03 0. -1.
</event>
<event>
 6   0  0.4500850E-05  0.2971020E+03  0.7546771E-02  0.1104309E+00
       21   -1    0    0  501  503  0.00000000000E+00  0.00000000000E+00  0.10660825706E+04  0.10660825706E+04  0.00000000000E+00 0. -1.
       21   -1    0    0  503  504  0.00000000000E+00  0.00000000000E+00 -0.35812876809E+03  0.35812876809E+03  0.00000000000E+00 0.  1.
        6    1    1    2  501    0 -0.24495745547E+03  0.62026678253E+02  0.57318040744E+03  0.64985863331E+03  0.17300000000E+03 0. -1.
       -6    1    1    2    0  504  0.21489189422E+03 -0.24422275497E+02  0.11696039190E+03  0.30063883151E+03  0.17300000000E+03 0.  1.
        6    1    1    2  502    0 -0.62197099176E+02 -0.36355529605E+02 -0.13007944246E+03  0.22812247813E+03  0.17300000000E+03 0.  1.
       -6    1    1    2    0  502  0.92262660425E+02 -0.12488731509E+01  0.14789244564E+03  0.24559139576E+03  0.17300000000E+03 0.  1.
</event>
<event>
 6   0  0.4500850E-05  0.1846245E+04  0.7546771E-02  0.8884349E-01
        2   -1    0    0  502    0  0.00000000000E+00  0.00000000000E+00  0.18925451722E+04  0.18925451722E+04  0.00000000000E+00 0.  1.
       -2   -1    0    0    0  501  0.00000000000E+00  0.00000000000E+00 -0.95223714523E+03  0.95223714523E+03  0.00000000000E+00 0. -1.
        6    1    1    2  502    0  0.95436376760E+02 -0.51298983302E+02 -0.18706894273E+02  0.20498447646E+03  0.17300000000E+03 0.  1.
       -6    1    1    2    0  503  0.35541062529E+03 -0.44535581131E+03  0.10123565673E+03  0.60401669632E+03  0.17300000000E+03 0.  1.
        6    1    1    2  503    0  0.60349660010E+03  0.19502822224E+03  0.61312608820E+03  0.89894201917E+03  0.17300000000E+03 0.  1.
       -6    1    1    2    0  501 -0.10543436022E+04  0.30162657237E+03  0.24465317635E+03  0.11368391255E+04  0.17300000000E+03 0. -1.
</event>
<event>
 6   0  0.4500850E-05  0.4933263E+03  0.7546771E-02  0.1032336E+00
       21   -1    0    0  501  503  0.00000000000E+00  0.00000000000E+00  0.92959574796E+03  0.92959574796E+03  0.00000000000E+00 0.  1.
       21   -1    0    0  503  504  0.00000000000E+00  0.00000000000E+00 -0.95704508036E+03  0.95704508036E+03  0.00000000000E+00 0. -1.
        6    1    1    2  501    0 -0.24237040716E+03 -0.63246857026E+01 -0.75342331078E+02  0.30722773763E+03  0.17300000000E+03 0. -1.
       -6    1    1    2    0  504  0.23722665802E+03  0.11238678555E+03 -0.19321816280E+02  0.31497556957E+03  0.17300000000E+03 0.  1.
        6    1    1    2  502    0  0.62288946268E+02 -0.54426491896E+03 -0.31492053679E+03  0.65513980137E+03  0.17300000000E+03 0. -1.
       -6    1    1    2    0  502 -0.57145197132E+02  0.43820281912E+03  0.38213535175E+03  0.60929771975E+03  0.17300000000E+03 0.  1.
</event>
<event>
 6   0  0.4500850E-05  0.5923353E+03  0.7546771E-02  0.1027907E+00
       21   -1    0    0  501  503  0.00000000000E+00  0.00000000000E+00  0.19715350955E+04  0.19715350955E+04  0.00000000000E+00 0. -1.
       21   -1    0    0  502  504  0.00000000000E+00  0.00000000000E+00 -0.26583344628E+03  0.26583344628E+03  0.00000000000E+00 0.  1.
        6    1    1    2  501    0  0.36280583757E+03  0.41035774865E+02  0.45242461506E+03  0.60657154805E+03  0.17300000000E+03 0.  1.
       -6    1    1    2    0  504  0.43327440580E+02 -0.81838382962E+02 -0.41676364379E+02  0.20060086585E+03  0.17300000000E+03 0.  1.
        6    1    1    2  502    0 -0.37174603399E+03 -0.10295745526E+02  0.10218555225E+04  0.11010989170E+04  0.17300000000E+03 0. -1.
       -6    1    1    2    0  503 -0.34387244164E+02  0.51098353623E+02  0.27309787605E+03  0.32909721088E+03  0.17300000000E+03 0. -1.
</event>
<event>
 6   0  0.4500850E-05  0.1868625E+03  0.7546771E-02  0.1161926E+00
       21   -1    0    0  502  503  0.00000000000E+00  0.00000000000E+00  0.63817514401E+03  0.63817514401E+03  0.00000000000E+00 0.  1.
       21   -1    0    0  503  504  0.00000000000E+00  0.00000000000E+00 -0.42877246212E+03  0.42877246212E+03  0.00000000000E+00 0.  1.
        6    1    1    2  501    0 -0.21984187759E+02 -0.29149430919E+01 -0.98100727847E+02  0.20011135452E+03  0.17300000000E+03 0.  1.
       -6    1    1    2    0  504 -0.41508114129E+02  0.84048683682E+02 -0.16986992029E+03  0.25994594551E+03  0.17300000000E+03 0.  1.
        6    1    1    2  502    0  0.24644814066E+02 -0.80505686024E+02  0.19864812292E+03  0.27654766150E+03  0.17300000000E+03 0.  1.
       -6    1    1    2    0  501  0.38847487821E+02 -0.62805456636E+00  0.27872520710E+03  0.33034264459E+03  0.17300000000E+03 0.  1.
</event>
<event>
 6   0  0.4500850E-05  0.4133475E+03  0.7546771E-02  0.1044274E+00
       21   -1    0    0  502  503  0.00000000000E+00  0.00000000000E+00  0.22821604132E+04  0.22821604132E+04  0.00000000000E+00 0.  1.
       21   -1    0    0  501  504  0.00000000000E+00  0.00000000000E+00 -0.91837949209E+03  0.91837949209E+03  0.00000000000E+00 0.  1.
        6    1    1    2  501    0 -0.19713245343E+03  0.35221751747E+03 -0.60240881155E+03  0.74548223322E+03  0.17300000000E+03 0. -1.
       -6    1    1    2    0  504  0.24114445746E+03 -0.45686311214E+03  0.14342560468E+04  0.15342405159E+04  0.17300000000E+03 0.  1.
        6    1    1    2  502    0 -0.13210940309E+03 -0.12764136141E+03  0.56253763017E+03  0.61654099368E+03  0.17300000000E+03 0. -1.
       -6    1    1    2    0  503  0.88097399064E+02  0.23228695608E+03 -0.30603944322E+02  0.30427616255E+03  0.17300000000E+03 0.  1.
</event>
<event>
 6   0  0.4500850E-05  0.3092350E+03  0.7546771E-02  0.1081491E+00
       21   -1    0    0  502  503  0.00000000000E+00  0.00000000000E+00  0.15822829252E+04  0.15822829252E+04  0.00000000000E+00 0.  1.
       21   -1    0    0  503  504  0.00000000000E+00  0.00000000000E+00 -0.30611487949E+03  0.30611487949E+03  0.00000000000E+00 0. -1.
        6    1    1    2  501    0 -0.45945364482E+03 -0.83186787880E+02  0.35814066725E+03  0.61336076737E+03  0.17300000000E+03 0.  1.
       -6    1    1    2    0  501  0.11545966385E+03 -0.29619672868E+02  0.42544076445E+03  0.47448614632E+03  0.17300000000E+03 0.  1.
        6    1    1    2  502    0  0.31145281743E+03  0.22579648151E+03  0.32305318100E+03  0.53129960126E+03  0.17300000000E+03 0. -1.
       -6    1    1    2    0  504  0.32541163546E+02 -0.11299002076E+03  0.16953343301E+03  0.26925128974E+03  0.17300000000E+03 0. -1.
</event>
<event>
 6   0  0.4500850E-05  0.2222158E+03  0.7546771E-02  0.1139798E+00
       21   -1    0    0  501  503  0.00000000000E+00  0.00000000000E+00  0.75713056608E+03  0.75713056608E+03  0.00000000000E+00 0.  1.
       21   -1    0    0  502  504  0.00000000000E+00  0.00000000000E+00 -0.70478560192E+03  0.70478560192E+03  0.00000000000E+00 0.  1.
        6    1    1    2  501    0 -0.79422541638E+01 -0.41664117731E+02 -0.46003210972E+03  0.49331280146E+03  0.17300000000E+03 0.  1.
       -6    1    1    2    0  504 -0.11764761373E+03 -0.95627588221E+01 -0.35969624853E+02  0.21249757948E+03  0.17300000000E+03 0.  1.
        6    1    1    2  502    0  0.23385075557E+03  0.10547239116E+03  0.32498033498E+03  0.44872243013E+03  0.17300000000E+03 0.  1.
       -6    1    1    2    0  503 -0.10826088768E+03 -0.54245514608E+02  0.22336636376E+03  0.30738335693E+03  0.17300000000E+03 0.  1.
</event>
<event>
 6   0  0.4500850E-05  0.8291292E+03  0.7546771E-02  0.9942481E-01
       21   -1    0    0  502  503  0.00000000000E+00  0.00000000000E+00  0.68856013830E+03  0.68856013830E+03  0.00000000000E+00 0.  1.
       21   -1    0    0  501  504  0.00000000000E+00  0.00000000000E+00 -0.15783222944E+04  0.15783222944E+04  0.00000000000E+00 0. -1.
        6    1    1    2  501    0  0.33799217540E+02  0.14466045892E+03 -0.22091294838E+03  0.31749104908E+03  0.17300000000E+03 0.  1.
       -6    1    1    2    0  503  0.34208244934E+03  0.49458631730E+03 -0.81155292309E+03  0.10247844526E+04  0.17300000000E+03 0. -1.
        6    1    1    2  502    0 -0.69346481569E+02 -0.77697060699E+02  0.16607621885E+03  0.26144995356E+03  0.17300000000E+03 0. -1.
       -6    1    1    2    0  504 -0.30653518532E+03 -0.56154971552E+03 -0.23372503532E+02  0.66315697747E+03  0.17300000000E+03 0.  1.
</event>
<event>
 6   0  0.4500850E-05  0.2641848E+03  0.7546771E-02  0.1108330E+00
       21   -1    0    0  501  503  0.00000000000E+00  0.00000000000E+00  0.22579400638E+04  0.22579400638E+04  0.00000000000E+00 0. -1.
       21   -1    0    0  502  504  0.00000000000E+00  0.00000000000E+00 -0.59916963407E+03  0.59916963407E+03  0.00000000000E+00 0. -1.
        6    1    1    2  501    0  0.17669768200E+03  0.91915603288E+02 -0.47825835583E+03  0.54619648834E+03  0.17300000000E+03 0. -1.
       -6    1    1    2    0  503 -0.48766805489E+02  0.19197579948E+03  0.12636740063E+04  0.12907493572E+04  0.17300000000E+03 0. -1.
        6    1    1    2  502    0 -0.17383704905E+03 -0.19427443438E+03  0.64237406762E+03  0.71451754228E+03  0.17300000000E+03 0. -1.
       -6    1    1    2    0  504  0.45906172541E+02 -0.89616968389E+02  0.23098071164E+03  0.30564631005E+03  0.17300000000E+03 0. -1.
</event>
<event>
 6   0  0.4500850E-05  0.7134940E+03  0.7546771E-02  0.9694430E-01
        2   -1    0    0  503    0  0.00000000000E+00  0.00000000000E+00  0.85787329137E+03  0.85787329137E+03  0.00000000000E+00 0.  1.
       -2   -1    0    0    0  501  0.00000000000E+00  0.00000000000E+00 -0.92356788173E+03  0.92356788173E+03  0.00000000000E+00 0. -1.
        6    1    1    2  502    0  0.19944831378E+03 -0.41436241284E+02  0.10981878884E+03  0.28893902184E+03  0.17300000000E+03 0. -1.
       -6    1    1    2    0  501 -0.33324858841E+02  0.20746262415E+03 -0.51642507742E+03  0.58375949433E+03  0.17300000000E+03 0. -1.
        6    1    1    2  503    0 -0.11520807634E+03 -0.41529731899E+03  0.37807181873E+03  0.59884226983E+03  0.17300000000E+03 0.  1.
       -6    1    1    2    0  502 -0.50915378595E+02  0.24927093612E+03 -0.37160120508E+02  0.30990038711E+03  0.17300000000E+03 0.  1.
</event>
<event>
 6   0  0.4500850E-05  0.3710005E+03  0.7546771E-02  0.1065717E+00
       21   -1    0    0  502  503  0.00000000000E+00  0.00000000000E+00  0.10953763889E+03  0.10953763889E+03  0.00000000000E+00 0. -1.
       21   -1    0    0  503  504  0.00000000000E+00  0.00000000000E+00 -0.27077215619E+04  0.27077215619E+04  0.00000000000E+00 0. -1.
        6    1    1    2  501    0 -0.40378882663E+02 -0.10231526188E+03 -0.49519214488E+03  0.53595067621E+03  0.17300000000E+03 0. -1.
       -6    1    1    2    0  504  0.57459087644E+02  0.12779570338E+03 -0.74245373794E+03  0.77511279279E+03  0.17300000000E+03 0. -1.
        6    1    1    2  502    0 -0.36297007083E+01  0.22615586506E+03 -0.35427405814E+03  0.45453136118E+03  0.17300000000E+03 0. -1.
       -6    1    1    2    0  501 -0.13450504272E+02 -0.25163630656E+03 -0.10062639821E+04  0.10516643706E+04  0.17300000000E+03 0. -1.
</event>
<event>
 6   0  0.4500850E-05  0.5013169E+03  0.7546771E-02  0.1036537E+00
       21   -1    0    0  504  503  0.00000000000E+00  0.00000000000E+00  0.10742618552E+04  0.10742618552E+04  0.00000000000E+00 0.  1.
       21   -1    0    0  501  504  0.00000000000E+00  0.00000000000E+00 -0.23998242958E+04  0.23998242958E+04  0.00000000000E+00 0.  1.
        6    1    1    2  501    0 -0.44371053781E+02 -0.16613740819E+03 -0.37867691485E+03  0.45043937955E+03  0.17300000000E+03 0.  1.
       -6    1    1    2    0  502  0.44579658136E+03 -0.95791836296E+02 -0.15093028275E+04  0.15861382956E+04  0.17300000000E+03 0.  1.
        6    1    1    2  502    0 -0.68537721432E+03 -0.10452844786E+03  0.36633544148E+02  0.71549922353E+03  0.17300000000E+03 0. -1.
       -6    1    1    2    0  503  0.28395168674E+03  0.36645769235E+03  0.52578375757E+03  0.72200925230E+03  0.17300000000E+03 0.  1.
</event>
<event>
 6   0  0.4500850E-05  0.2816617E+03  0.7546771E-02  0.1109051E+00
       21   -1    0    0  501  503  0.00000000000E+00  0.00000000000E+00  0.51502392681E+03  0.51502392681E+03  0.00000000000E+00 0.  1.
       21   -1    0    0  502  504  0.00000000000E+00  0.00000000000E+00 -0.56912571355E+03  0.56912571355E+03  0.00000000000E+00 0. -1.
        6    1    1    2  501    0 -0.22672322560E+03 -0.17486854331E+03 -0.68419928694E+02  0.34145675437E+03  0.17300000000E+03 0.  1.
       -6    1    1    2    0  504  0.58715103993E+02 -0.67533548066E+02 -0.10562533329E+03  0.22157155635E+03  0.17300000000E+03 0.  1.
        6    1    1    2  502    0 -0.99089564837E+01  0.15719862061E+03  0.33096129483E+01  0.23398621173E+03  0.17300000000E+03 0. -1.
       -6    1    1    2    0  503  0.17791707809E+03  0.85203470764E+02  0.11663386230E+03  0.28713511792E+03  0.17300000000E+03 0.  1.
</event>
<event>
 6   0  0.4500850E-05  0.4112336E+03  0.7546771E-02  0.1067387E+00
       21   -1    0    0  502  503  0.00000000000E+00  0.00000000000E+00  0.75200024450E+03  0.75200024450E+03  0.00000000000E+00 0. -1.
       21   -1    0    0  503  504  0.00000000000E+00  0.00000000000E+00 -0.13773447244E+04  0.13773447244E+04  0.00000000000E+00 0.  1.
        6    1    1    2  501    0 -0.32417001885E+03 -0.52826709536E+02  0.10124825881E+03  0.38478185024E+03  0.17300000000E+03 0. -1.
       -6    1    1    2    0  504  0.11634544554E+02  0.35452395677E+03 -0.96314455762E+03  0.10408645625E+04  0.17300000000E+03 0.  1.
        6    1    1    2  502    0 -0.27462596915E+02 -0.10100678159E+02  0.11018538175E+03  0.20718599441E+03  0.17300000000E+03 0. -1.
       -6    1    1    2    0  501  0.33999807121E+03 -0.29159656907E+03  0.12636643719E+03  0.49651256174E+03  0.17300000000E+03 0. -1.
</event>
<event>
 6   0  0.4500850E-05  0.8535032E+03  0.7546771E-02  0.9871973E-01
       21   -1    0    0  501  503  0.00000000000E+00  0.00000000000E+00  0.26660289385E+04  0.26660289385E+04  0.00000000000E+00 0.  1.
       21   -1    0    0  502  504  0.00000000000E+00  0.00000000000E+00 -0.65841052192E+03  0.65841052192E+03  0.00000000000E+00 0. -1.
        6    1    1    2  501    0 -0.32513436905E+03 -0.55537970149E+03 -0.20284631318E+03  0.69658782471E+03  0.17300000000E+03 0. -1.
       -6    1    1    2    0  504 -0.62783249471E+02 -0.55913181233E+02  0.43580536980E+02  0.19722140719E+03  0.17300000000E+03 0. -1.
        6    1    1    2  502    0  0.23660114081E+03  0.57846667648E+03  0.73557722180E+03  0.98061544189E+03  0.17300000000E+03 0.  1.
       -6    1    1    2    0  503  0.15131647772E+03  0.32826206240E+02  0.14313069710E+04  0.14500147866E+04  0.17300000000E+03 0. -1.
</event>
<event>
 6   0  0.4500850E-05  0.3006035E+03  0.7546771E-02  0.1094101E+00
       21   -1    0    0  501  503  0.00000000000E+00  0.00000000000E+00  0.50010859176E+03  0.50010859176E+03  0.00000000000E+00 0.  1.
       21   -1    0    0  502  504  0.00000000000E+00  0.00000000000E+00 -0.97553608030E+03  0.97553608030E+03  0.00000000000E+00 0. -1.
        6    1    1    2  501    0  0.59867453023E+02  0.10826956884E+03  0.89450996228E+02  0.23073121201E+03  0.17300000000E+03 0. -1.
       -6    1    1    2    0  503  0.17021296579E+03 -0.23339544349E+03 -0.18664197512E+03  0.38498066659E+03  0.17300000000E+03 0.  1.
        6    1    1    2  502    0 -0.35400456663E+03 -0.24637274067E+02  0.72315566823E+01  0.39485126805E+03  0.17300000000E+03 0.  1.
       -6    1    1    2    0  504  0.12392414781E+03  0.14976314872E+03 -0.38546806634E+03  0.46508152542E+03  0.17300000000E+03 0. -1.
</event>
<event>
 6   0  0.4500850E-05  0.2478168E+03  0.7546771E-02  0.1125104E+00
       21   -1    0    0  501  503  0.00000000000E+00  0.00000000000E+00  0.54772202006E+03  0.54772202006E+03  0.00000000000E+00 0.  1.
       21   -1    0    0  502  504  0.00000000000E+00  0.00000000000E+00 -0.78093610434E+03  0.78093610434E+03  0.00000000000E+00 0. -1.
        6    1    1    2  501    0  0.30411876193E+02 -0.75005539238E+02  0.13679885209E+03  0.23493326513E+03  0.17300000000E+03 0.  1.
       -6    1    1    2    0  504  0.16549434009E+03 -0.43759947189E+02  0.14336364674E+03  0.28246317421E+03  0.17300000000E+03 0.  1.
        6    1    1    2  502    0 -0.35529466298E+02  0.18802474003E+03 -0.50287402412E+03  0.56517867084E+03  0.17300000000E+03 0.  1.
       -6    1    1    2    0  503 -0.16037674998E+03 -0.69259253606E+02 -0.10502558986E+02  0.24608301422E+03  0.17300000000E+03 0.  1.
</event>
<event>
 6   0  0.4500850E-05  0.2589847E+03  0.7546771E-02  0.1113854E+00
       21   -1    0    0  501  503  0.00000000000E+00  0.00000000000E+00  0.70760488031E+03  0.70760488031E+03  0.00000000000E+00 0. -1.
       21   -1    0    0  502  504  0.00000000000E+00  0.00000000000E+00 -0.49682033408E+03  0.49682033408E+03  0.00000000000E+00 0.  1.
        6    1    1    2  501    0  0.11890441820E+03  0.11481348138E+03  0.34933135580E+03  0.42341680685E+03  0.17300000000E+03 0. -1.
       -6    1    1    2    0  504  0.20014367285E+02 -0.74509962999E+02  0.91081972254E+01  0.18964247610E+03  0.17300000000E+03 0.  1.
        6    1    1    2  502    0 -0.16932419090E+03 -0.19214064467E+03 -0.17888192896E+03  0.35709446014E+03  0.17300000000E+03 0.  1.
       -6    1    1    2    0  503  0.30405405415E+02  0.15183712629E+03  0.31226922151E+02  0.23427147130E+03  0.17300000000E+03 0. -1.
</event>
<event>
 6   0  0.4500850E-05  0.3084155E+03  0.7546771E-02  0.1089582E+00
       21   -1    0    0  502  503  0.00000000000E+00  0.00000000000E+00  0.11231739189E+04  0.11231739189E+04  0.00000000000E+00 0. -1.
       21   -1    0    0  501  504  0.00000000000E+00  0.00000000000E+00 -0.42446734368E+03  0.42446734368E+03  0.00000000000E+00 0.  1.
        6    1    1    2  501    0  0.22102588270E+03 -0.28584743299E+03  0.23680898389E+03  0.46536941308E+03  0.17300000000E+03 0. -1.
       -6    1    1    2    0  504 -0.16753939349E+03  0.38425707289E+03  0.21145758165E+02  0.45398137575E+03  0.17300000000E+03 0.  1.
        6    1    1    2  502    0 -0.94634986973E+02 -0.10872508680E+03  0.37694363608E+03  0.43908134786E+03  0.17300000000E+03 0. -1.
       -6    1    1    2    0  503  0.41148497759E+02  0.10315446906E+02  0.63808197100E+02  0.18920912592E+03  0.17300000000E+03 0.  1.
</event>
<event>
 6   0  0.4500850E-05  0.2286187E+03  0.7546771E-02  0.1132856E+00
       21   -1    0    0  504  503  0.00000000000E+00  0.00000000000E+00  0.95367533701E+03  0.95367533701E+03  0.00000000000E+00 0. -1.
       21   -1    0    0  501  504  0.00000000000E+00  0.00000000000E+00 -0.74660532296E+03  0.74660532296E+03  0.00000000000E+00 0.  1.
        6    1    1    2  501    0 -0.34559246736E+01 -0.76774150257E+02 -0.47472956493E+03  0.51108059382E+03  0.17300000000E+03 0.  1.
       -6    1    1    2    0  503 -0.17818285364E+03  0.23106949296E+02  0.69801282665E+03  0.74123813084E+03  0.17300000000E+03 0. -1.
        6    1    1    2  502    0 -0.64767609824E+01 -0.31967944949E+02  0.14689902669E+02  0.17665981767E+03  0.17300000000E+03 0.  1.
       -6    1    1    2    0  502  0.18811553929E+03  0.85635145911E+02 -0.30903150352E+02  0.27130211765E+03  0.17300000000E+03 0. -1.
</event>
<event>
 6   0  0.4500850E-05  0.2101250E+03  0.7546771E-02  0.1145921E+00
       21   -1    0    0  502  503  0.00000000000E+00  0.00000000000E+00  0.38769388927E+03  0.38769388927E+03  0.00000000000E+00 0. -1.
       21   -1    0    0  501  504  0.00000000000E+00  0.00000000000E+00 -0.81640468658E+03  0.81640468658E+03  0.00000000000E+00 0.  1.
        6    1    1    2  501    0  0.34418675684E+02  0.67026804942E+00 -0.25431215604E+03  0.30949760452E+03  0.17300000000E+03 0.  1.
       -6    1    1    2    0  504 -0.12905271438E+03  0.66084127267E+02 -0.33627005134E+02  0.22821369468E+03  0.17300000000E+03 0.  1.
        6    1    1    2  502    0  0.44070841768E+02 -0.14253515691E+03 -0.32532518228E+03  0.39752230664E+03  0.17300000000E+03 0. -1.
       -6    1    1    2    0  503  0.50563196924E+02  0.75780761589E+02  0.18455354614E+03  0.26886497002E+03  0.17300000000E+03 0. -1.
</event>
<event>
 6   0  0.4500850E-05  0.2055261E+03  0.7546771E-02  0.1145323E+00
       21   -1    0    0  501  503  0.00000000000E+00  0.00000000000E+00  0.22358454656E+03  0.22358454656E+03  0.00000000000E+00 0. -1.
       21   -1    0    0  502  504  0.00000000000E+00  0.00000000000E+00 -0.10193526080E+04  0.10193526080E+04  0.00000000000E+00 0. -1.
        6    1    1    2  501    0  0.37348326575E+02  0.97295431258E+01  0.34343912304E+02  0.18054934456E+03  0.17300000000E+03 0. -1.
       -6    1    1    2    0  503 -0.21835994814E+02  0.25821188727E+02 -0.25641546459E+03  0.31116142907E+03  0.17300000000E+03 0. -1.
        6    1    1    2  502    0 -0.12613803762E+03 -0.13038567787E+03 -0.36945436039E+03  0.44647144807E+03  0.17300000000E+03 0. -1.
       -6    1    1    2    0  504  0.11062570586E+03  0.94834946013E+02 -0.20424214876E+03  0.30475493288E+03  0.17300000000E+03 0.  1.
</event>
<event>
 6   0  0.4500850E-05  0.4455989E+03  0.7546771E-02  0.1029043E+00
       -4   -1    0    0    0  501  0.00000000000E+00  0.00000000000E+00  0.11784174581E+04  0.11784174581E+04  0.00000000000E+00 0. -1.
        4   -1    0    0  502    0  0.00000000000E+00  0.00000000000E+00 -0.52499486842E+03  0.52499486842E+03  0.00000000000E+00 0.  1.
        6    1    1    2  502    0  0.89699559574E+02  0.70036851266E+02  0.40879843369E+02  0.21107186719E+03  0.17300000000E+03 0.  1.
       -6    1    1    2    0  501 -0.45089313644E+02  0.73528409884E+01 -0.10523811342E+03  0.20758412991E+03  0.17300000000E+03 0.  1.
        6    1    1    2  503    0  0.15011187111E+03 -0.16193447302E+03  0.90864371908E+03  0.95095675802E+03  0.17300000000E+03 0. -1.
       -6    1    1    2    0  503 -0.19472211704E+03  0.84544780768E+02 -0.19086285932E+03  0.33379957143E+03  0.17300000000E+03 0.  1.
</event>
<event>
 6   0  0.4500850E-05  0.2176276E+03  0.7546771E-02  0.1143975E+00
       21   -1    0    0  502  503  0.00000000000E+00  0.00000000000E+00  0.16181073133E+04  0.16181073133E+04  0.00000000000E+00 0. -1.
       21   -1    0    0  501  504  0.00000000000E+00  0.00000000000E+00 -0.65581375194E+03  0.65581375194E+03  0.00000000000E+00 0.  1.
        6    1    1    2  501    0  0.51470599435E+02 -0.12829819726E+03  0.10105549670E+04  0.10345337072E+04  0.17300000000E+03 0. -1.
       -6    1    1    2    0  503  0.80405684011E+02  0.97357716767E+02  0.48403444229E+03  0.52930325935E+03  0.17300000000E+03 0.  1.
        6    1    1    2  502    0  0.25208334667E+02  0.28217244420E+02 -0.40937334083E+03  0.44603498204E+03  0.17300000000E+03 0.  1.
       -6    1    1    2    0  504 -0.15708461811E+03  0.27232360728E+01 -0.12292250709E+03  0.26404911666E+03  0.17300000000E+03 0. -1.
</event>
<event>
 6   0  0.4500850E-05  0.5760053E+03  0.7546771E-02  0.1031954E+00
       21   -1    0    0  504  503  0.00000000000E+00  0.00000000000E+00  0.14957563490E+04  0.14957563490E+04  0.00000000000E+00 0.  1.
       21   -1    0    0  501  504  0.00000000000E+00  0.00000000000E+00 -0.61056266060E+03  0.61056266060E+03  0.00000000000E+00 0.  1.
        6    1    1    2  501    0 -0.72378404601E+02  0.25397246538E+02 -0.18756852924E+03  0.26644813144E+03  0.17300000000E+03 0.  1.
       -6    1    1    2    0  502 -0.18076338189E+03 -0.36160132046E+03 -0.16805021743E+03  0.47074493175E+03  0.17300000000E+03 0.  1.
        6    1    1    2  502    0  0.15731886350E+03  0.21901353115E+03  0.92200291018E+03  0.97608120463E+03  0.17300000000E+03 0.  1.
       -6    1    1    2    0  503  0.95822922992E+02  0.11719054277E+03  0.31880952486E+03  0.39304474176E+03  0.17300000000E+03 0.  1.
</event>
<event>
 6   0  0.4500850E-05  0.3676451E+03  0.7546771E-02  0.1059201E+00
       21   -1    0    0  502  503  0.00000000000E+00  0.00000000000E+00  0.73914449200E+03  0.73914449200E+03  0.00000000000E+00 0.  1.
       21   -1    0    0  501  504  0.00000000000E+00  0.00000000000E+00 -0.90430145675E+03  0.90430145675E+03  0.00000000000E+00 0.  1.
        6    1    1    2  501    0 -0.11975452111E+03  0.75660049198E+02 -0.16511880410E+03  0.27795468666E+03  0.17300000000E+03 0.  1.
       -6    1    1    2    0  504  0.73613943544E+02 -0.57828059470E+03  0.19496504003E+02  0.60838850462E+03  0.17300000000E+03 0.  1.
        6    1    1    2  502    0  0.18514812434E+03  0.60025608433E+02 -0.28029442170E+02  0.26191134233E+03  0.17300000000E+03 0.  1.
       -6    1    1    2    0  503 -0.13900754678E+03  0.44259493707E+03  0.84947775083E+01  0.49519141513E+03  0.17300000000E+03 0. -1.
</event>
<event>
 6   0  0.4500850E-05  0.2829153E+03  0.7546771E-02  0.1109772E+00
       21   -1    0    0  504  503  0.00000000000E+00  0.00000000000E+00  0.65538313271E+03  0.65538313271E+03  0.00000000000E+00 0. -1.
       21   -1    0    0  502  504  0.00000000000E+00  0.00000000000E+00 -0.15901729290E+04  0.15901729290E+04  0.00000000000E+00 0. -1.
        6    1    1    2  501    0  0.22679679024E+02 -0.16791429952E+03  0.17196815577E+03  0.29700442156E+03  0.17300000000E+03 0. -1.
       -6    1    1    2    0  503  0.80981798834E+01  0.28889231231E+03  0.31510245231E+03  0.46124061408E+03  0.17300000000E+03 0. -1.
        6    1    1    2  502    0 -0.62098921601E+02  0.42669161853E+02 -0.49239068534E+03  0.52730875249E+03  0.17300000000E+03 0. -1.
       -6    1    1    2    0  501  0.31321062693E+02 -0.16364717463E+03 -0.92946971906E+03  0.96000227363E+03  0.17300000000E+03 0. -1.
</event>
<event>
 6   0  0.4500850E-05  0.2266500E+03  0.7546771E-02  0.1131349E+00
       21   -1    0    0  501  503  0.00000000000E+00  0.00000000000E+00  0.10203803021E+04  0.10203803021E+04  0.00000000000E+00 0. -1.
       21   -1    0    0  502  504  0.00000000000E+00  0.00000000000E+00 -0.21993729379E+03  0.21993729379E+03  0.00000000000E+00 0.  1.
        6    1    1    2  501    0  0.81561892856E+02 -0.10547867122E+03  0.86906189849E+02  0.23507398470E+03  0.17300000000E+03 0.  1.
       -6    1    1    2    0  504  0.12937918430E+03  0.73060156174E+02  0.26207264165E+03  0.34740153893E+03  0.17300000000E+03 0. -1.
        6    1    1    2  502    0 -0.16217160286E+03 -0.84763241748E+02  0.16962622117E+03  0.30362228317E+03  0.17300000000E+03 0.  1.
       -6    1    1    2    0  503 -0.48769474294E+02  0.11718175680E+03  0.28183795565E+03  0.35421978910E+03  0.17300000000E+03 0. -1.
</event>
<event>
 6   0  0.4500850E-05  0.2217386E+03  0.7546771E-02  0.1141737E+00
       21   -1    0    0  502  503  0.00000000000E+00  0.00000000000E+00  0.20084103176E+04  0.20084103176E+04  0.00000000000E+00 0.  1.
       21   -1    0    0  501  504  0.00000000000E+00  0.00000000000E+00 -0.56323578169E+03  0.56323578169E+03  0.00000000000E+00 0. -1.
        6    1    1    2  501    0 -0.16957384356E+02  0.36655322851E+02 -0.15616424410E+03  0.23653210504E+03  0.17300000000E+03 0. -1.
       -6    1    1    2    0  503 -0.52061576392E+02 -0.13440179233E+03 -0.24840155930E+03  0.33527091163E+03  0.17300000000E+03 0. -1.
        6    1    1    2  502    0 -0.56657765463E+02  0.13284664048E+03  0.17444103324E+04  0.17589072574E+04  0.17300000000E+03 0.  1.
       -6    1    1    2    0  504  0.12567672621E+03 -0.35100171002E+02  0.10533000686E+03  0.24093582519E+03  0.17300000000E+03 0. -1.
</event>
<event>
 6   0  0.4500850E-05  0.2665070E+03  0.7546771E-02  0.1108092E+00
       21   -1    0    0  502  503  0.00000000000E+00  0.00000000000E+00  0.22876169934E+03  0.22876169934E+03  0.00000000000E+00 0. -1.
       21   -1    0    0  501  504  0.00000000000E+00  0.00000000000E+00 -0.26643858072E+04  0.26643858072E+04  0.00000000000E+00 0.  1.
        6    1    1    2  501    0  0.15964805708E+03  0.10135546180E+02 -0.34918953710E+03  0.42125118901E+03  0.17300000000E+03 0. -1.
       -6    1    1    2    0  503 -0.97812893932E+02 -0.17917342569E+03 -0.17516042691E+04  0.17719246582E+04  0.17300000000E+03 0.  1.
        6    1    1    2  502    0  0.12712503694E+03  0.13887355035E+03  0.25352711649E+02  0.25694045612E+03  0.17300000000E+03 0. -1.
       -6    1    1    2    0  504 -0.18896020008E+03  0.30164329159E+02 -0.36018301327E+03  0.44303120321E+03  0.17300000000E+03 0.  1.
</event>
<event>
 6   0  0.4500850E-05  0.3089700E+03  0.7546771E-02  0.1102771E+00
       21   -1    0    0  501  503  0.00000000000E+00  0.00000000000E+00  0.74501069815E+03  0.74501069815E+03  0.00000000000E+00 0.  1.
       21   -1    0    0  502  504  0.00000000000E+00  0.00000000000E+00 -0.63058487354E+03  0.63058487354E+03  0.00000000000E+00 0.  1.
        6    1    1    2  501    0  0.73026472156E+01  0.85655889536E+01  0.95455785773E+02  0.19790781947E+03  0.17300000000E+03 0. -1.
       -6    1    1    2    0  503 -0.11331321113E+03 -0.14397323081E+03  0.16205849256E+03  0.29959994996E+03  0.17300000000E+03 0.  1.
        6    1    1    2  502    0 -0.13714542144E+03  0.22591517875E+03 -0.37438087157E+03  0.48983320795E+03  0.17300000000E+03 0.  1.
       -6    1    1    2    0  504  0.24315598536E+03 -0.90507536887E+02  0.23129241784E+03  0.38825459431E+03  0.17300000000E+03 0.  1.
</event>
<event>
 6   0  0.4500850E-05  0.5315777E+03  0.7546771E-02  0.1042293E+00
       21   -1    0    0  502  503  0.00000000000E+00  0.00000000000E+00  0.15349874442E+04  0.15349874442E+04  0.00000000000E+00 0.  1.
       21   -1    0    0  501  504  0.00000000000E+00  0.00000000000E+00 -0.62037431755E+03  0.62037431755E+03  0.00000000000E+00 0. -1.
        6    1    1    2  501    0  0.28777186416E+03  0.42592385799E+03 -0.72763103302E+02  0.54721773346E+03  0.17300000000E+03 0. -1.
       -6    1    1    2    0  503 -0.17143662043E+03 -0.46704988569E+03  0.15717888524E+02  0.52697453693E+03  0.17300000000E+03 0.  1.
        6    1    1    2  502    0 -0.12995467923E+03  0.18825522886E+01  0.21937467562E+03  0.30813310591E+03  0.17300000000E+03 0. -1.
       -6    1    1    2    0  504  0.13619435496E+02  0.39243475420E+02  0.75228366586E+03  0.77303638550E+03  0.17300000000E+03 0.  1.
</event>
<event>
 6   0  0.4500850E-05  0.3075423E+03  0.7546771E-02  0.1093712E+00
       21   -1    0    0  502  503  0.00000000000E+00  0.00000000000E+00  0.24320599103E+04  0.24320599103E+04  0.00000000000E+00 0.  1.
       21   -1    0    0  501  504  0.00000000000E+00  0.00000000000E+00 -0.78672723242E+03  0.78672723242E+03  0.00000000000E+00 0. -1.
        6    1    1    2  501    0 -0.18191452835E+03  0.30925805098E+03  0.14792596173E+03  0.42490531636E+03  0.17300000000E+03 0.  1.
       -6    1    1    2    0  503  0.23826007430E+02 -0.14929512382E+02  0.19276658493E+04  0.19356175231E+04  0.17300000000E+03 0.  1.
        6    1    1    2  502    0  0.32056024274E+03 -0.23296580698E+03 -0.43464671714E+03  0.61308947566E+03  0.17300000000E+03 0. -1.
       -6    1    1    2    0  504 -0.16247172182E+03 -0.61362731621E+02  0.43875839916E+01  0.24517482766E+03  0.17300000000E+03 0.  1.
</event>
<event>
 6   0  0.4500850E-05  0.7818339E+03  0.7546771E-02  0.9979591E-01
       21   -1    0    0  501  503  0.00000000000E+00  0.00000000000E+00  0.27851107598E+04  0.27851107598E+04  0.00000000000E+00 0. -1.
       21   -1    0    0  502  504  0.00000000000E+00  0.00000000000E+00 -0.14677830126E+04  0.14677830126E+04  0.00000000000E+00 0. -1.
        6    1    1    2  501    0  0.54206439135E+03 -0.44409613870E+03  0.91955567407E+03  0.11690024904E+04  0.17300000000E+03 0. -1.
       -6    1    1    2    0  503 -0.33242485980E+03  0.14249496745E+03  0.92444029991E+03  0.10076358327E+04  0.17300000000E+03 0. -1.
        6    1    1    2  502    0 -0.83991225797E+02  0.29152649202E+03  0.72589187040E+03  0.80553723010E+03  0.17300000000E+03 0.  1.
       -6    1    1    2    0  504 -0.12564830576E+03  0.10074679227E+02 -0.12525600972E+04  0.12707182193E+04  0.17300000000E+03 0. -1.
</event>
<event>
 6   0  0.4500850E-05  0.4310012E+03  0.7546771E-02  0.1033544E+00
       -2   -1    0    0    0  501  0.00000000000E+00  0.00000000000E+00  0.25654499045E+03  0.25654499045E+03  0.00000000000E+00 0. -1.
        2   -1    0    0  502    0  0.00000000000E+00  0.00000000000E+00 -0.13908746672E+04  0.13908746672E+04  0.00000000000E+00 0.  1.
        6    1    1    2  502    0  0.44828371782E+02  0.22535800223E+02 -0.49249649219E+03  0.52440369948E+03  0.17300000000E+03 0.  1.
       -6    1    1    2    0  503 -0.39342768708E+02 -0.26235890387E+01 -0.62788078439E+03  0.65247070131E+03  0.17300000000E+03 0.  1.
        6    1    1    2  503    0  0.45295295216E+01 -0.16298056196E+03  0.35752921086E+02  0.24039644669E+03  0.17300000000E+03 0. -1.
       -6    1    1    2    0  501 -0.10015132596E+02  0.14306835077E+03 -0.49705321299E+02  0.23014881021E+03  0.17300000000E+03 0.  1.
</event>
<event>
 6   0  0.4500850E-05  0.2250839E+03  0.7546771E-02  0.1135518E+00
       21   -1    0    0  504  503  0.00000000000E+00  0.00000000000E+00  0.92414972632E+03  0.92414972632E+03  0.00000000000E+00 0.  1.
       21   -1    0    0  501  504  0.00000000000E+00  0.00000000000E+00 -0.10505589293E+04  0.10505589293E+04  0.00000000000E+00 0. -1.
        6    1    1    2  501    0 -0.45048005928E+02 -0.14635761296E+02 -0.13295640872E+03  0.22327098998E+03  0.17300000000E+03 0.  1.
       -6    1    1    2    0  502 -0.29029531285E+02  0.19469532692E+03 -0.74789672042E+03  0.79248185369E+03  0.17300000000E+03 0. -1.
        6    1    1    2  502    0  0.10493957546E+03 -0.32070749747E+02  0.69083189537E+03  0.72056821686E+03  0.17300000000E+03 0.  1.
       -6    1    1    2    0  503 -0.30862038245E+02 -0.14798881587E+03  0.63612030797E+02  0.23838759509E+03  0.17300000000E+03 0. -1.
</event>
<event>
 6   0  0.4500850E-05  0.2374589E+03  0.7546771E-02  0.1133443E+00
       21   -1    0    0  502  503  0.00000000000E+00  0.00000000000E+00  0.47417440337E+03  0.47417440337E+03  0.00000000000E+00 0.  1.
       21   -1    0    0  501  504  0.00000000000E+00  0.00000000000E+00 -0.13138245486E+04  0.13138245486E+04  0.00000000000E+00 0.  1.
        6    1    1    2  501    0 -0.12128773065E+03  0.97332158904E+02 -0.10261512235E+04  0.10521880042E+04  0.17300000000E+03 0.  1.
       -6    1    1    2    0  504  0.19989203265E+03 -0.13660734189E+03 -0.10511422479E+02  0.29775473225E+03  0.17300000000E+03 0.  1.
        6    1    1    2  502    0 -0.11367797326E+03  0.49984758738E+02  0.12634653794E+03  0.24761584230E+03  0.17300000000E+03 0. -1.
       -6    1    1    2    0  503  0.35073671251E+02 -0.10709575755E+02  0.70665962833E+02  0.19044037316E+03  0.17300000000E+03 0.  1.
</event>
<event>
 6   0  0.4500850E-05  0.3909563E+03  0.7546771E-02  0.1072855E+00
       21   -1    0    0  501  503  0.00000000000E+00  0.00000000000E+00  0.12170590345E+04  0.12170590345E+04  0.00000000000E+00 0. -1.
       21   -1    0    0  502  504  0.00000000000E+00  0.00000000000E+00 -0.19128323146E+03  0.19128323146E+03  0.00000000000E+00 0. -1.
        6    1    1    2  501    0  0.60540247604E+02 -0.14724428064E+02  0.33960729230E+03  0.38619171838E+03  0.17300000000E+03 0.  1.
       -6    1    1    2    0  504  0.82839218799E+02 -0.90974915291E+02  0.56377133229E+03  0.60241670503E+03  0.17300000000E+03 0. -1.
        6    1    1    2  502    0 -0.32625413996E+02  0.69713879422E+02  0.30298191921E+02  0.19175876266E+03  0.17300000000E+03 0.  1.
       -6    1    1    2    0  503 -0.11075405241E+03  0.35985463932E+02  0.92098986546E+02  0.22797507991E+03  0.17300000000E+03 0. -1.
</event>
<event>
 6   0  0.4500850E-05  0.8391305E+03  0.7546771E-02  0.9736844E-01
       21   -1    0    0  501  503  0.00000000000E+00  0.00000000000E+00  0.17072347028E+04  0.17072347028E+04  0.00000000000E+00 0. -1.
       21   -1    0    0  503  504  0.00000000000E+00  0.00000000000E+00 -0.13967673023E+04  0.13967673023E+04  0.00000000000E+00 0. -1.
        6    1    1    2  501    0  0.25184697470E+03 -0.22698607149E+03  0.10146320710E+04  0.10836774496E+04  0.17300000000E+03 0. -1.
       -6    1    1    2    0  502  0.14453366059E+03 -0.45019493478E+03  0.36152119643E+03  0.61983226264E+03  0.17300000000E+03 0. -1.
        6    1    1    2  502    0 -0.29796053926E+03  0.59591066807E+03 -0.87350148027E+03  0.11121258217E+04  0.17300000000E+03 0. -1.
       -6    1    1    2    0  504 -0.98420096019E+02  0.81270338202E+02 -0.19218438665E+03  0.28836647108E+03  0.17300000000E+03 0. -1.
</event>
<event>
 6   0  0.4500850E-05  0.5975619E+03  0.7546771E-02  0.1030551E+00
       21   -1    0    0  501  503  0.00000000000E+00  0.00000000000E+00  0.14320392600E+04  0.14320392600E+04  0.00000000000E+00 0.  1.
       21   -1    0    0  502  504  0.00000000000E+00  0.00000000000E+00 -0.42135688959E+03  0.42135688959E+03  0.00000000000E+00 0.  1.
        6    1    1    2  501    0  0.83467811958E+02  0.21208741284E+03  0.22875910417E+03  0.36634365568E+03  0.17300000000E+03 0.  1.
       -6    1    1    2    0  503 -0.19514290766E+03 -0.44881152074E+03  0.54585358696E+03  0.75325803942E+03  0.17300000000E+03 0.  1.
        6    1    1    2  502    0  0.13675412856E+02  0.33161974502E+02 -0.16519341359E+03  0.24187723614E+03  0.17300000000E+03 0.  1.
       -6    1    1    2    0  504  0.97999682845E+02  0.20356213340E+03  0.40126309286E+03  0.49191721832E+03  0.17300000000E+03 0.  1.
</event>
<event>
 6   0  0.4500850E-05  0.4561815E+03  0.7546771E-02  0.1044407E+00
       21   -1    0    0  504  503  0.00000000000E+00  0.00000000000E+00  0.19317128365E+04  0.19317128365E+04  0.00000000000E+00 0.  1.
       21   -1    0    0  502  504  0.00000000000E+00  0.00000000000E+00 -0.58609983677E+03  0.58609983677E+03  0.00000000000E+00 0. -1.
        6    1    1    2  501    0  0.54026107772E+01  0.20043586256E+03  0.10546974972E+03  0.28505541796E+03  0.17300000000E+03 0.  1.
       -6    1    1    2    0  503  0.31091545034E+03  0.27829341134E+03  0.12743920991E+04  0.13520798284E+04  0.17300000000E+03 0.  1.
        6    1    1    2  502    0 -0.40327221796E+03 -0.24974661421E+03 -0.19401585020E+03  0.54090017861E+03  0.17300000000E+03 0. -1.
       -6    1    1    2    0  501  0.86954156841E+02 -0.22898265968E+03  0.15976700110E+03  0.33977724830E+03  0.17300000000E+03 0. -1.
</event>
<event>
 6   0  0.4500850E-05  0.2749428E+03  0.7546771E-02  0.1101910E+00
       21   -1    0    0  501  503  0.00000000000E+00  0.00000000000E+00  0.20384306799E+03  0.20384306799E+03  0.00000000000E+00 0.  1.
       21   -1    0    0  503  504  0.00000000000E+00  0.00000000000E+00 -0.17138586977E+04  0.17138586977E+04  0.00000000000E+00 0. -1.
        6    1    1    2  501    0  0.94905137416E+02  0.28920449321E+03 -0.22784743173E+03  0.41771961427E+03  0.17300000000E+03 0.  1.
       -6    1    1    2    0  502  0.14820751118E+03 -0.51954854956E+02 -0.28566643990E+03  0.36905160643E+03  0.17300000000E+03 0. -1.
        6    1    1    2  502    0 -0.92064694154E+02 -0.22758602423E+03 -0.49014031457E+03  0.57483722418E+03  0.17300000000E+03 0. -1.
       -6    1    1    2    0  504 -0.15104795444E+03 -0.96636140275E+01 -0.50636144352E+03  0.55609332082E+03  0.17300000000E+03 0. -1.
</event>
<event>
 6   0  0.4500850E-05  0.2044540E+03  0.7546771E-02  0.1146123E+00
       21   -1    0    0  501  503  0.00000000000E+00  0.00000000000E+00  0.38338477966E+03  0.38338477966E+03  0.00000000000E+00 0.  1.
       21   -1    0    0  502  504  0.00000000000E+00  0.00000000000E+00 -0.21911578816E+04  0.21911578816E+04  0.00000000000E+00 0.  1.
        6    1    1    2  501    0 -0.10017787603E+03  0.43373533573E+02  0.28771108720E+03  0.35302059424E+03  0.17300000000E+03 0.  1.
       -6    1    1    2    0  504  0.59108493179E+02 -0.16424936639E+02 -0.20220657435E+03  0.27309355763E+03  0.17300000000E+03 0.  1.
        6    1    1    2  502    0  0.69678972505E+02 -0.88552584565E+02 -0.14917920814E+04  0.15060110669E+04  0.17300000000E+03 0.  1.
       -6    1    1    2    0  503 -0.28609589654E+02  0.61603987631E+02 -0.40148553338E+03  0.44241744250E+03  0.17300000000E+03 0.  1.
</event>
<event>
 6   0  0.4500850E-05  0.2879758E+03  0.7546771E-02  0.1095578E+00
       21   -1    0    0  501  503  0.00000000000E+00  0.00000000000E+00  0.24524655492E+03  0.24524655492E+03  0.00000000000E+00 0.  1.
       21   -1    0    0  502  504  0.00000000000E+00  0.00000000000E+00 -0.17697239917E+04  0.17697239917E+04  0.00000000000E+00 0.  1.
        6    1    1    2  501    0 -0.93944998372E+02  0.93670613224E+02 -0.81116698467E+02  0.23261290865E+03  0.17300000000E+03 0. -1.
       -6    1    1    2    0  504 -0.29782483192E+03 -0.15567740936E+03 -0.25062338597E+03  0.45351534471E+03  0.17300000000E+03 0.  1.
        6    1    1    2  502    0  0.17883963285E+03 -0.42256949408E+02 -0.79794130637E+03  0.83690417162E+03  0.17300000000E+03 0.  1.
       -6    1    1    2    0  503  0.21293019744E+03  0.10426374555E+03 -0.39479604597E+03  0.49193812165E+03  0.17300000000E+03 0.  1.
</event>
<event>
 6   0  0.4500850E-05  0.2255755E+03  0.7546771E-02  0.1138012E+00
       21   -1    0    0  502  503  0.00000000000E+00  0.00000000000E+00  0.28242177859E+04  0.28242177859E+04  0.00000000000E+00 0. -1.
       21   -1    0    0  503  504  0.00000000000E+00  0.00000000000E+00 -0.18569358849E+04  0.18569358849E+04  0.00000000000E+00 0.  1.
        6    1    1    2  501    0 -0.15964607416E+03 -0.23105635901E+02 -0.34615612548E+03  0.41925386416E+03  0.17300000000E+03 0. -1.
       -6    1    1    2    0  504  0.68429428752E+02 -0.10980242856E+03 -0.14022209678E+04  0.14187641814E+04  0.17300000000E+03 0.  1.
        6    1    1    2  502    0  0.50141060451E+01 -0.38212422764E+02  0.25013467126E+04  0.25076183336E+04  0.17300000000E+03 0. -1.
       -6    1    1    2    0  501  0.86202539366E+02  0.17112048722E+03  0.21431228161E+03  0.33551729164E+03  0.17300000000E+03 0. -1.
</event>
<event>
 6   0  0.4500850E-05  0.3189059E+03  0.7546771E-02  0.1089889E+00
       21   -1    0    0  504  503  0.00000000000E+00  0.00000000000E+00  0.46969164598E+03  0.46969164598E+03  0.00000000000E+00 0. -1.
       21   -1    0    0  502  504  0.00000000000E+00  0.00000000000E+00 -0.11289718403E+04  0.11289718403E+04  0.00000000000E+00 0.  1.
        6    1    1    2  501    0  0.10884773116E+03  0.27103051727E+03  0.55102693417E+02  0.34390504023E+03  0.17300000000E+03 0. -1.
       -6    1    1    2    0  503  0.63786004891E+02  0.50682309982E+02  0.77275196241E+02  0.20624695614E+03  0.17300000000E+03 0.  1.
        6    1    1    2  502    0  0.14754322994E+03 -0.15405599296E+03 -0.22803291615E+03  0.35697375887E+03  0.17300000000E+03 0. -1.
       -6    1    1    2    0  501 -0.32017696599E+03 -0.16765683429E+03 -0.56362516781E+03  0.69153773102E+03  0.17300000000E+03 0.  1.
</event>
<event>
 6   0  0.4500850E-05  0.6103568E+03  0.7546771E-02  0.9884149E-01
        2   -1    0    0  503    0  0.00000000000E+00  0.00000000000E+00  0.34321283359E+03  0.34321283359E+03  0.00000000000E+00 0.  1.
       -2   -1    0    0    0  501  0.00000000000E+00  0.00000000000E+00 -0.25512749174E+04  0.25512749174E+04  0.00000000000E+00 0. -1.
        6    1    1    2  502    0  0.54208105365E+02  0.80283110970E+02 -0.20113768855E+03  0.28243453462E+03  0.17300000000E+03 0.  1.
       -6    1    1    2    0  501 -0.26629543132E+03 -0.29462449847E+03 -0.19486474862E+04  0.19962146371E+04  0.17300000000E+03 0. -1.
        6    1    1    2  503    0  0.25217588255E+02  0.99803923035E+02 -0.21590101555E+03  0.29519315427E+03  0.17300000000E+03 0.  1.
       -6    1    1    2    0  502  0.18686973770E+03  0.11453746446E+03  0.15762410649E+03  0.32064542501E+03  0.17300000000E+03 0.  1.
</event>
<event>
 6   0  0.4500850E-05  0.4015081E+03  0.7546771E-02  0.1056097E+00
       21   -1    0    0  504  503  0.00000000000E+00  0.00000000000E+00  0.14688364350E+04  0.14688364350E+04  0.00000000000E+00 0.  1.
       21   -1    0    0  501  504  0.00000000000E+00  0.00000000000E+00 -0.64899915316E+03  0.64899915316E+03  0.00000000000E+00 0. -1.
        6    1    1    2  501    0  0.66560795618E+02  0.28100695888E+03 -0.31941398412E+03  0.46405769437E+03  0.17300000000E+03 0.  1.
       -6    1    1    2    0  503  0.14916786839E+03 -0.46566457664E+02  0.11319458384E+04  0.11557031925E+04  0.17300000000E+03 0.  1.
        6    1    1    2  502    0 -0.85808041128E+02 -0.20155805906E+03  0.70694325281E+00  0.27913826477E+03  0.17300000000E+03 0. -1.
       -6    1    1    2    0  502 -0.12992062288E+03 -0.32882442164E+02  0.65984842648E+01  0.21893643655E+03  0.17300000000E+03 0. -1.
</event>
<event>
 6   0  0.4500850E-05  0.4504323E+03  0.7546771E-02  0.1028243E+00
       21   -1    0    0  501  503  0.00000000000E+00  0.00000000000E+00  0.48924662618E+03  0.48924662618E+03  0.00000000000E+00 0. -1.
       21   -1    0    0  502  504  0.00000000000E+00  0.00000000000E+00 -0.46773675210E+03  0.46773675210E+03  0.00000000000E+00 0. -1.
        6    1    1    2  501    0 -0.28399429751E+02 -0.16539438363E+03  0.15724536915E+03  0.28777931800E+03  0.17300000000E+03 0. -1.
       -6    1    1    2    0  503  0.10351319755E+02  0.12071533982E+03 -0.12276660039E+03  0.24429486540E+03  0.17300000000E+03 0. -1.
        6    1    1    2  502    0  0.23568695708E+02  0.13848039080E+03 -0.39294181281E+02  0.22628595788E+03  0.17300000000E+03 0. -1.
       -6    1    1    2    0  504 -0.55205857114E+01 -0.93801346982E+02  0.26325286601E+02  0.19862323700E+03  0.17300000000E+03 0. -1.
</event>
<event>
 6   0  0.4500850E-05  0.3912303E+03  0.7546771E-02  0.1046859E+00
        2   -1    0    0  502    0  0.00000000000E+00  0.00000000000E+00  0.11691157239E+04  0.11691157239E+04  0.00000000000E+00 0. -1.
       -2   -1    0    0    0  501  0.00000000000E+00  0.00000000000E+00 -0.30178650407E+03  0.30178650407E+03  0.00000000000E+00 0.  1.
        6    1    1    2  502    0 -0.13880751249E+03  0.64380013575E+02  0.76651432512E+03  0.80055326012E+03  0.17300000000E+03 0. -1.
       -6    1    1    2    0  503  0.75565923326E+02  0.63663013980E+02  0.19461487249E+02  0.20017726545E+03  0.17300000000E+03 0.  1.
        6    1    1    2  503    0  0.46961421460E+01 -0.19486379975E+03  0.33723115589E+01  0.26064214296E+03  0.17300000000E+03 0. -1.
       -6    1    1    2    0  501  0.58545447021E+02  0.66820772192E+02  0.77981095926E+02  0.20952955945E+03  0.17300000000E+03 0.  1.
</event>
<event>
 6   0  0.4500850E-05  0.2718677E+03  0.7546771E-02  0.1113037E+00
       21   -1    0    0  502  503  0.00000000000E+00  0.00000000000E+00  0.26757127900E+03  0.26757127900E+03  0.00000000000E+00 0.  1.
       21   -1    0    0  501  504  0.00000000000E+00  0.00000000000E+00 -0.95845019090E+03  0.95845019090E+03  0.00000000000E+00 0.  1.
        6    1    1    2  501    0  0.12975799122E+03 -0.16916296822E+03 -0.22389942813E+03  0.35427842161E+03  0.17300000000E+03 0.  1.
       -6    1    1    2    0  504  0.32126514393E+02  0.17306231649E+03 -0.15033916904E+03  0.28898710017E+03  0.17300000000E+03 0.  1.
        6    1    1    2  502    0  0.51992779834E+02 -0.75326571932E+02 -0.74620373954E+02  0.20946250691E+03  0.17300000000E+03 0.  1.
       -6    1    1    2    0  503 -0.21387728545E+03  0.71427223664E+02 -0.24201994078E+03  0.37329344120E+03  0.17300000000E+03 0.  1.
</event>
<event>
 6   0  0.4500850E-05  0.2909517E+03  0.7546771E-02  0.1102978E+00
       21   -1    0    0  504  503  0.00000000000E+00  0.00000000000E+00  0.25928731205E+04  0.25928731205E+04  0.00000000000E+00 0.  1.
       21   -1    0    0  502  504  0.00000000000E+00  0.00000000000E+00 -0.56170623587E+03  0.56170623587E+03  0.00000000000E+00 0. -1.
        6    1    1    2  501    0  0.20815459596E+03  0.10875672306E+03  0.77805135841E+03  0.83093277523E+03  0.17300000000E+03 0.  1.
       -6    1    1    2    0  503  0.26990883861E+02 -0.72023501325E+02  0.14134158267E+04  0.14260396880E+04  0.17300000000E+03 0.  1.
        6    1    1    2  502    0  0.19550436427E+03  0.53615261049E+02 -0.30319460578E+03  0.40367378121E+03  0.17300000000E+03 0. -1.
       -6    1    1    2    0  501 -0.43064984409E+03 -0.90348482787E+02  0.14289430526E+03  0.49393311190E+03  0.17300000000E+03 0. -1.
</event>
<event>
 6   0  0.4500850E-05  0.2402812E+03  0.7546771E-02  0.1125150E+00
       21   -1    0    0  502  503  0.00000000000E+00  0.00000000000E+00  0.56811721963E+03  0.56811721963E+03  0.00000000000E+00 0.  1.
       21   -1    0    0  501  504  0.00000000000E+00  0.00000000000E+00 -0.18035547259E+04  0.18035547259E+04  0.00000000000E+00 0.  1.
        6    1    1    2  501    0 -0.20075034148E+02  0.93035826289E+02  0.40335269444E+03  0.44908915382E+03  0.17300000000E+03 0.  1.
       -6    1    1    2    0  504 -0.13048905319E+03 -0.71874008497E+02 -0.88333020099E+03  0.91235656959E+03  0.17300000000E+03 0.  1.
        6    1    1    2  502    0  0.29153447079E+03 -0.23312103334E+02 -0.70322928951E+03  0.78102255758E+03  0.17300000000E+03 0. -1.
       -6    1    1    2    0  503 -0.14097038345E+03  0.21502855426E+01 -0.52230710184E+02  0.22920366451E+03  0.17300000000E+03 0.  1.
</event>
<event>
 6   0  0.4500850E-05  0.5208606E+03  0.7546771E-02  0.1021914E+00
       21   -1    0    0  502  503  0.00000000000E+00  0.00000000000E+00  0.41915882817E+03  0.41915882817E+03  0.00000000000E+00 0. -1.
       21   -1    0    0  503  504  0.00000000000E+00  0.00000000000E+00 -0.26507950882E+04  0.26507950882E+04  0.00000000000E+00 0. -1.
        6    1    1    2  501    0  0.76967282491E+02  0.30319013725E+03 -0.33522425035E+03  0.49005358883E+03  0.17300000000E+03 0. -1.
       -6    1    1    2    0  501 -0.15239530009E+03 -0.37762685873E+03 -0.16386138635E+04  0.16972951321E+04  0.17300000000E+03 0. -1.
        6    1    1    2  502    0 -0.40759834820E+02 -0.26337401912E+03  0.11515473672E+03  0.33795983706E+03  0.17300000000E+03 0. -1.
       -6    1    1    2    0  504  0.11618785242E+03  0.33781074059E+03 -0.37295288293E+03  0.54464535837E+03  0.17300000000E+03 0. -1.
</event>
<event>
 6   0  0.4500850E-05  0.2322627E+03  0.7546771E-02  0.1129348E+00
       21   -1    0    0  502  503  0.00000000000E+00  0.00000000000E+00  0.86657228437E+03  0.86657228437E+03  0.00000000000E+00 0.  1.
       21   -1    0    0  501  504  0.00000000000E+00  0.00000000000E+00 -0.27132515338E+03  0.27132515338E+03  0.00000000000E+00 0. -1.
        6    1    1    2  501    0 -0.23591315676E+03  0.48391047687E+02  0.18078511397E+03  0.34728801946E+03  0.17300000000E+03 0.  1.
       -6    1    1    2    0  503  0.91991273795E+02 -0.10010233374E+03  0.26824691993E+03  0.34694132317E+03  0.17300000000E+03 0.  1.
        6    1    1    2  502    0  0.14207234364E+03 -0.31013748320E+02  0.95175511728E+02  0.24522190246E+03  0.17300000000E+03 0. -1.
       -6    1    1    2    0  504  0.18495393217E+01  0.82725034370E+02  0.51039585373E+02  0.19844619266E+03  0.17300000000E+03 0. -1.
</event>
<event>
 6   0  0.4500850E-05  0.2697881E+03  0.7546771E-02  0.1107363E+00
       21   -1    0    0  501  503  0.00000000000E+00  0.00000000000E+00  0.23035961193E+04  0.23035961193E+04  0.00000000000E+00 0.  1.
       21   -1    0    0  502  504  0.00000000000E+00  0.00000000000E+00 -0.21279579976E+03  0.21279579976E+03  0.00000000000E+00 0. -1.
        6    1    1    2  501    0 -0.10607037176E+03  0.70876011609E+02  0.75023860758E+03  0.78042379583E+03  0.17300000000E+03 0. -1.
       -6    1    1    2    0  503 -0.13259363205E+03  0.20361944386E+03  0.38369809952E+03  0.48599915715E+03  0.17300000000E+03 0.  1.
        6    1    1    2  502    0  0.46376640887E+02 -0.22463606896E+03  0.94343273538E+03  0.98620813345E+03  0.17300000000E+03 0.  1.
       -6    1    1    2    0  504  0.19228736292E+03 -0.49859386508E+02  0.13430877029E+02  0.26376083261E+03  0.17300000000E+03 0. -1.
</event>
<event>
 6   0  0.4500850E-05  0.6619749E+03  0.7546771E-02  0.1016100E+00
       21   -1    0    0  502  503  0.00000000000E+00  0.00000000000E+00  0.38135878859E+03  0.38135878859E+03  0.00000000000E+00 0. -1.
       21   -1    0    0  501  504  0.00000000000E+00  0.00000000000E+00 -0.26574756461E+04  0.26574756461E+04  0.00000000000E+00 0. -1.
        6    1    1    2  501    0  0.53269350628E+03  0.27018629027E+03 -0.17425936083E+04  0.18502228208E+04  0.17300000000E+03 0. -1.
       -6    1    1    2    0  504 -0.25617564355E+03 -0.14062921298E+03 -0.85534113288E+02  0.35021082283E+03  0.17300000000E+03 0. -1.
        6    1    1    2  502    0 -0.24408699380E+03 -0.33137539271E+02  0.46647254803E+02  0.30460059657E+03  0.17300000000E+03 0. -1.
       -6    1    1    2    0  503 -0.32430868927E+02 -0.96419538014E+02 -0.49463639078E+03  0.53380019450E+03  0.17300000000E+03 0.  1.
</event>
<event>
 6   0  0.4500850E-05  0.4404778E+03  0.7546771E-02  0.1049326E+00
       21   -1    0    0  504  503  0.00000000000E+00  0.00000000000E+00  0.14911319846E+04  0.14911319846E+04  0.00000000000E+00 0.  1.
       21   -1    0    0  502  504  0.00000000000E+00  0.00000000000E+00 -0.11931966015E+04  0.11931966015E+04  0.00000000000E+00 0. -1.
        6    1    1    2  501    0  0.61593025203E+03  0.13429138899E+03  0.94809685107E+03  0.11516166426E+04  0.17300000000E+03 0.  1.
       -6    1    1    2    0  503 -0.15852619866E+03 -0.30346796658E+03  0.21485336219E+03  0.43967525476E+03  0.17300000000E+03 0. -1.
        6    1    1    2  502    0 -0.15021079605E+03 -0.29139298443E+02 -0.48881601057E+03  0.54063155121E+03  0.17300000000E+03 0.  1.
       -6    1    1    2    0  501 -0.30719325732E+03  0.19831587604E+03 -0.37619881958E+03  0.55240513746E+03  0.17300000000E+03 0. -1.
</event>
<event>
 6   0  0.4500850E-05  0.2516276E+03  0.7546771E-02  0.1113684E+00
       21   -1    0    0  501  503  0.00000000000E+00  0.00000000000E+00  0.15945231515E+04  0.15945231515E+04  0.00000000000E+00 0.  1.
       21   -1    0    0  503  504  0.00000000000E+00  0.00000000000E+00 -0.28132773590E+03  0.28132773590E+03  0.00000000000E+00 0.  1.
        6    1    1    2  501    0  0.78556285575E+02 -0.46431215257E+02  0.70626758379E+03  0.73285049476E+03  0.17300000000E+03 0. -1.
       -6    1    1    2    0  504 -0.11251998900E+03  0.63323239444E+01 -0.59819977786E+02  0.21496110344E+03  0.17300000000E+03 0.  1.
        6    1    1    2  502    0  0.17344635677E+03 -0.20006975070E+03  0.29102453562E+03  0.42980905546E+03  0.17300000000E+03 0. -1.
       -6    1    1    2    0  502 -0.13948265334E+03  0.24016864201E+03  0.37572327393E+03  0.49823023369E+03  0.17300000000E+03 0.  1.
</event>
<event>
 6   0  0.4500850E-05  0.2829739E+03  0.7546771E-02  0.1097003E+00
       21   -1    0    0  501  503  0.00000000000E+00  0.00000000000E+00  0.39626423929E+03  0.39626423929E+03  0.00000000000E+00 0.  1.
       21   -1    0    0  502  504  0.00000000000E+00  0.00000000000E+00 -0.98047865808E+03  0.98047865808E+03  0.00000000000E+00 0. -1.
        6    1    1    2  501    0  0.11537258361E+03 -0.11600198544E+03 -0.23926883785E+02  0.23930898320E+03  0.17300000000E+03 0. -1.
       -6    1    1    2    0  503 -0.13547071151E+03  0.91699779600E+02 -0.12306490127E+03  0.26802077005E+03  0.17300000000E+03 0. -1.
        6    1    1    2  502    0  0.11406974284E+03  0.26193232710E+03 -0.45018663814E+03  0.56055103191E+03  0.17300000000E+03 0. -1.
       -6    1    1    2    0  504 -0.93971614943E+02 -0.23763012126E+03  0.12964004410E+02  0.30886211221E+03  0.17300000000E+03 0.  1.
</event>
<event>
 6   0  0.4500850E-05  0.3408242E+03  0.7546771E-02  0.1068238E+00
       21   -1    0    0  502  503  0.00000000000E+00  0.00000000000E+00  0.17087281142E+04  0.17087281142E+04  0.00000000000E+00 0. -1.
       21   -1    0    0  501  504  0.00000000000E+00  0.00000000000E+00 -0.19373275268E+04  0.19373275268E+04  0.00000000000E+00 0.  1.
        6    1    1    2  501    0  0.57097974909E+03  0.19850515872E+03  0.11012672035E+04  0.12681248462E+04  0.17300000000E+03 0. -1.
       -6    1    1    2    0  504 -0.75819622568E+02 -0.73218699113E+00 -0.14134483467E+04  0.14260134572E+04  0.17300000000E+03 0.  1.
        6    1    1    2  502    0 -0.55437881033E+03 -0.23543332807E+03  0.27517306313E+03  0.68440772350E+03  0.17300000000E+03 0. -1.
       -6    1    1    2    0  503  0.59218683816E+02  0.37660356340E+02 -0.19159133256E+03  0.26750961415E+03  0.17300000000E+03 0.  1.
</event>
<event>
 6   0  0.4500850E-05  0.2447754E+03  0.7546771E-02  0.1122249E+00
       21   -1    0    0  501  503  0.00000000000E+00  0.00000000000E+00  0.20174065247E+03  0.20174065247E+03  0.00000000000E+00 0. -1.
       21   -1    0    0  502  504  0.00000000000E+00  0.00000000000E+00 -0.13807420996E+04  0.13807420996E+04  0.00000000000E+00 0.  1.
        6    1    1    2  501    0 -0.10348550615E+03  0.60629447875E+02 -0.53194803386E+03  0.57208643635E+03  0.17300000000E+03 0.  1.
       -6    1    1    2    0  504  0.65400806031E+02  0.15449922854E+03 -0.17222039224E+03  0.29620287060E+03  0.17300000000E+03 0. -1.
        6    1    1    2  502    0 -0.13419843663E+03 -0.24908663526E+02 -0.23894770434E+03  0.32504563883E+03  0.17300000000E+03 0.  1.
       -6    1    1    2    0  503  0.17228313675E+03 -0.19022001289E+03 -0.23588531668E+03  0.38914780628E+03  0.17300000000E+03 0.  1.
</event>
<event>
 6   0  0.4500850E-05  0.2850139E+03  0.7546771E-02  0.1109116E+00
       21   -1    0    0  502  503  0.00000000000E+00  0.00000000000E+00  0.84867007180E+03  0.84867007180E+03  0.00000000000E+00 0.  1.
       21   -1    0    0  501  504  0.00000000000E+00  0.00000000000E+00 -0.99477571744E+03  0.99477571744E+03  0.00000000000E+00 0. -1.
        6    1    1    2  501    0 -0.23378314616E+03  0.89911338941E+02 -0.49209785351E+03  0.57864315924E+03  0.17300000000E+03 0. -1.
       -6    1    1    2    0  503  0.62987496850E+02 -0.24666768066E+03 -0.20675279423E+03  0.37079386101E+03  0.17300000000E+03 0.  1.
        6    1    1    2  502    0  0.72735625288E+02 -0.33147986001E+00  0.60656831447E+03  0.63493676944E+03  0.17300000000E+03 0.  1.
       -6    1    1    2    0  504  0.98060024025E+02  0.15708782158E+03 -0.53823312365E+02  0.25907199956E+03  0.17300000000E+03 0. -1.
</event>
<event>
 6   0  0.4500850E-05  0.3052383E+03  0.7546771E-02  0.1094133E+00
       21   -1    0    0  502  503  0.00000000000E+00  0.00000000000E+00  0.79700526676E+03  0.79700526676E+03  0.00000000000E+00 0.  1.
       21   -1    0    0  503  504  0.00000000000E+00  0.00000000000E+00 -0.93293279676E+03  0.93293279676E+03  0.00000000000E+00 0. -1.
        6    1    1    2  501    0 -0.20077804882E+02  0.12110344457E+03 -0.13916212304E+03  0.25370112145E+03  0.17300000000E+03 0. -1.
       -6    1    1    2    0  501  0.22264900610E+03  0.12566268958E+03 -0.36916816015E+03  0.48122533385E+03  0.17300000000E+03 0. -1.
        6    1    1    2  502    0 -0.19954787977E+03  0.10597960197E+03  0.50557395510E+03  0.58015950947E+03  0.17300000000E+03 0.  1.
       -6    1    1    2    0  504 -0.30233214471E+01 -0.35274573612E+03 -0.13317120191E+03  0.41485209876E+03  0.17300000000E+03 0. -1.
</event>
<event>
 6   0  0.4500850E-05  0.3167690E+03  0.7546771E-02  0.1088044E+00
       21   -1    0    0  504  503  0.00000000000E+00  0.00000000000E+00  0.34336097244E+03  0.34336097244E+03  0.00000000000E+00 0. -1.
       21   -1    0    0  502  504  0.00000000000E+00  0.00000000000E+00 -0.16158115153E+04  0.16158115153E+04  0.00000000000E+00 0.  1.
        6    1    1    2  501    0  0.27750832196E+03 -0.10689104706E+03 -0.98288027548E+02  0.35780735188E+03  0.17300000000E+03 0. -1.
       -6    1    1    2    0  503  0.99569300918E+02 -0.22935978136E+02  0.42882241663E+02  0.20544583575E+03  0.17300000000E+03 0. -1.
        6    1    1    2  502    0 -0.30776889340E+03 -0.77262272018E+02 -0.92110803797E+03  0.98947469297E+03  0.17300000000E+03 0.  1.
       -6    1    1    2    0  501 -0.69308729472E+02  0.20708929722E+03 -0.29593671898E+03  0.40644460710E+03  0.17300000000E+03 0.  1.
</event>
<event>
 6   0  0.4500850E-05  0.1961196E+03  0.7546771E-02  0.1153138E+00
       21   -1    0    0  502  503  0.00000000000E+00  0.00000000000E+00  0.37898237777E+03  0.37898237777E+03  0.00000000000E+00 0.  1.
       21   -1    0    0  503  504  0.00000000000E+00  0.00000000000E+00 -0.13741936264E+04  0.13741936264E+04  0.00000000000E+00 0. -1.
        6    1    1    2  501    0  0.94467189123E+02  0.10465270480E+03 -0.13569012343E+03  0.26118393526E+03  0.17300000000E+03 0. -1.
       -6    1    1    2    0  504 -0.26138115519E+02  0.13383876918E+02 -0.10399342729E+04  0.10546348283E+04  0.17300000000E+03 0. -1.
        6    1    1    2  502    0  0.14204030307E+02 -0.22464444727E+02  0.35052776736E+02  0.17850519015E+03  0.17300000000E+03 0.  1.
       -6    1    1    2    0  501 -0.82533103911E+02 -0.95572136992E+02  0.14536037089E+03  0.25885205047E+03  0.17300000000E+03 0.  1.
</event>
<event>
 6   0  0.4500850E-05  0.4616199E+03  0.7546771E-02  0.1053421E+00
       21   -1    0    0  501  503  0.00000000000E+00  0.00000000000E+00  0.14025789436E+03  0.14025789436E+03  0.00000000000E+00 0. -1.
       21   -1    0    0  502  504  0.00000000000E+00  0.00000000000E+00 -0.28350767933E+04  0.28350767933E+04  0.00000000000E+00 0.  1.
        6    1    1    2  501    0  0.24801104390E+03  0.74804903393E+02 -0.11929386194E+04  0.12329382795E+04  0.17300000000E+03 0.  1.
       -6    1    1    2    0  503  0.11279743408E+01 -0.25075940013E+02 -0.53106428185E+03  0.55909600834E+03  0.17300000000E+03 0.  1.
        6    1    1    2  502    0 -0.35988411359E+03 -0.82291181863E+02 -0.38146811480E+03  0.55833263959E+03  0.17300000000E+03 0. -1.
       -6    1    1    2    0  504  0.11074509535E+03  0.32562218482E+02 -0.58934788286E+03  0.62496776017E+03  0.17300000000E+03 0.  1.
</event>
<event>
 6   0  0.4500850E-05  0.8256327E+03  0.7546771E-02  0.9718863E-01
       21   -1    0    0  502  503  0.00000000000E+00  0.00000000000E+00  0.21655765687E+04  0.21655765687E+04  0.00000000000E+00 0. -1.
       21   -1    0    0  501  504  0.00000000000E+00  0.00000000000E+00 -0.67711352207E+03  0.67711352207E+03  0.00000000000E+00 0.  1.
        6    1    1    2  501    0  0.20368247276E+02  0.69814206686E+02  0.28524996214E+03  0.34144608631E+03  0.17300000000E+03 0. -1.
       -6    1    1    2    0  503  0.19941744874E+03 -0.33215699557E+03 -0.52000685669E+03  0.67114210088E+03  0.17300000000E+03 0.  1.
        6    1    1    2  502    0 -0.17861032553E+03  0.17223357731E+03  0.15026348440E+04  0.15327773903E+04  0.17300000000E+03 0. -1.
       -6    1    1    2    0  504 -0.41175370485E+02  0.90109211576E+02  0.22058509713E+03  0.29732451332E+03  0.17300000000E+03 0.  1.
</event>
<event>
 6   0  0.4500850E-05  0.2166192E+03  0.7546771E-02  0.1138925E+00
       21   -1    0    0  504  503  0.00000000000E+00  0.00000000000E+00  0.49835963371E+03  0.49835963371E+03  0.00000000000E+00 0. -1.
       21   -1    0    0  502  504  0.00000000000E+00  0.00000000000E+00 -0.11451635984E+04  0.11451635984E+04  0.00000000000E+00 0. -1.
        6    1    1    2  501    0  0.49493405511E+01 -0.58948751063E+02  0.13918191216E+03  0.22978262749E+03  0.17300000000E+03 0.  1.
       -6    1    1    2    0  503 -0.69494991999E+02  0.17481261127E+03  0.15186281745E+03  0.29728827474E+03  0.17300000000E+03 0. -1.
        6    1    1    2  502    0 -0.69738612891E+02  0.56708238692E+02 -0.76260504620E+03  0.78713071020E+03  0.17300000000E+03 0. -1.
       -6    1    1    2    0  501  0.13428426434E+03 -0.17257209890E+03 -0.17524364806E+03  0.32932161963E+03  0.17300000000E+03 0. -1.
</event>
<event>
 6   0  0.4500850E-05  0.2784300E+03  0.7546771E-02  0.1101407E+00
       21   -1    0    0  504  503  0.00000000000E+00  0.00000000000E+00  0.15628450197E+04  0.15628450197E+04  0.00000000000E+00 0. -1.
       21   -1    0    0  502  504  0.00000000000E+00  0.00000000000E+00 -0.10524782292E+04  0.10524782292E+04  0.00000000000E+00 0. -1.
        6    1    1    2  501    0 -0.36550308703E+02  0.34788593369E+03  0.91569675397E+03  0.99538439467E+03  0.17300000000E+03 0. -1.
       -6    1    1    2    0  501  0.24284246833E+03 -0.16114246477E+03  0.91798607588E+02  0.35113436564E+03  0.17300000000E+03 0.  1.
        6    1    1    2  502    0 -0.16415481279E+03  0.81742467265E+01 -0.81868694018E+03  0.85275490435E+03  0.17300000000E+03 0. -1.
       -6    1    1    2    0  503 -0.42137346834E+02 -0.19491771565E+03  0.32155836911E+03  0.41604958432E+03  0.17300000000E+03 0.  1.
</event>
<event>
 6   0  0.4500850E-05  0.2356100E+03  0.7546771E-02  0.1128221E+00
       21   -1    0    0  502  503  0.00000000000E+00  0.00000000000E+00  0.22011179744E+03  0.22011179744E+03  0.00000000000E+00 0.  1.
       21   -1    0    0  501  504  0.00000000000E+00  0.00000000000E+00 -0.18609556157E+04  0.18609556157E+04  0.00000000000E+00 0. -1.
        6    1    1    2  501    0 -0.14853836728E+03 -0.12116833034E+03 -0.63007752308E+02  0.26579011961E+03  0.17300000000E+03 0.  1.
       -6    1    1    2    0  504  0.22877130116E+03 -0.46529850082E+02 -0.12005670227E+04  0.12352293354E+04  0.17300000000E+03 0. -1.
        6    1    1    2  502    0  0.59748968347E+02  0.67801139424E+02 -0.19143695368E+03  0.27339356422E+03  0.17300000000E+03 0. -1.
       -6    1    1    2    0  503 -0.13998190223E+03  0.99897040994E+02 -0.18583208958E+03  0.30665439385E+03  0.17300000000E+03 0.  1.
</event>
<event>
 6   0  0.4500850E-05  0.6067748E+03  0.7546771E-02  0.1003687E+00
       21   -1    0    0  501  503  0.00000000000E+00  0.00000000000E+00  0.60783774367E+03  0.60783774367E+03  0.00000000000E+00 0. -1.
       21   -1    0    0  502  504  0.00000000000E+00  0.00000000000E+00 -0.13856575998E+04  0.13856575998E+04  0.00000000000E+00 0.  1.
        6    1    1    2  501    0  0.31625175329E+03 -0.35125967620E+03 -0.62799432847E+03  0.80480085001E+03  0.17300000000E+03 0.  1.
       -6    1    1    2    0  503 -0.50272336964E+03  0.30787022542E+03  0.40005347880E+02  0.61566572906E+03  0.17300000000E+03 0. -1.
        6    1    1    2  502    0 -0.10290988671E+03  0.24983639184E+02 -0.78420692184E+02  0.21747053127E+03  0.17300000000E+03 0. -1.
       -6    1    1    2    0  504  0.28938150305E+03  0.18405811593E+02 -0.11141018338E+03  0.35555823316E+03  0.17300000000E+03 0.  1.
</event>
<event>
 6   0  0.4500850E-05  0.4384507E+03  0.7546771E-02  0.1031223E+00
       -2   -1    0    0    0  501  0.00000000000E+00  0.00000000000E+00  0.65352395357E+03  0.65352395357E+03  0.00000000000E+00 0.  1.
        2   -1    0    0  502    0  0.00000000000E+00  0.00000000000E+00 -0.54024195111E+03  0.54024195111E+03  0.00000000000E+00 0. -1.
        6    1    1    2  502    0 -0.11809516026E+03 -0.20344000941E+00  0.14687163341E+03  0.25582569254E+03  0.17300000000E+03 0.  1.
       -6    1    1    2    0  501 -0.10427134501E+03 -0.40953286777E+02  0.14769306832E+03  0.25355852878E+03  0.17300000000E+03 0.  1.
        6    1    1    2  503    0  0.34602341218E+01  0.14706718144E+03  0.12292597940E+03  0.25822572584E+03  0.17300000000E+03 0.  1.
       -6    1    1    2    0  503  0.21890627114E+03 -0.10591045465E+03 -0.30420867867E+03  0.42615595752E+03  0.17300000000E+03 0. -1.
</event>
<event>
 6   0  0.4500850E-05  0.2795829E+03  0.7546771E-02  0.1106024E+00
       21   -1    0    0  504  503  0.00000000000E+00  0.00000000000E+00  0.23972928861E+04  0.23972928861E+04  0.00000000000E+00 0.  1.
       21   -1    0    0  502  504  0.00000000000E+00  0.00000000000E+00 -0.57077672139E+03  0.57077672139E+03  0.00000000000E+00 0.  1.
        6    1    1    2  501    0 -0.87839578191E+02 -0.18740164804E+03  0.14452010468E+04  0.14701599351E+04  0.17300000000E+03 0.  1.
       -6    1    1    2    0  501  0.11990701006E+02  0.34857337193E+02 -0.31101939292E+03  0.35780004701E+03  0.17300000000E+03 0.  1.
        6    1    1    2  502    0  0.22789381109E+03  0.16040903931E+03 -0.77055968422E+02  0.33694698588E+03  0.17300000000E+03 0.  1.
       -6    1    1    2    0  503 -0.15204493390E+03 -0.78647284676E+01  0.76939047928E+03  0.80316263950E+03  0.17300000000E+03 0.  1.
</event>
<event>
 6   0  0.4500850E-05  0.5292161E+03  0.7546771E-02  0.1034327E+00
       21   -1    0    0  501  503  0.00000000000E+00  0.00000000000E+00  0.35216736651E+03  0.35216736651E+03  0.00000000000E+00 0. -1.
       21   -1    0    0  502  504  0.00000000000E+00  0.00000000000E+00 -0.12423702512E+04  0.12423702512E+04  0.00000000000E+00 0.  1.
        6    1    1    2  501    0 -0.29223653768E+03  0.95470635872E+02 -0.27789072915E+03  0.44907582168E+03  0.17300000000E+03 0.  1.
       -6    1    1    2    0  504 -0.10395416964E+03  0.10500996189E+03  0.77912504380E+02  0.24048476006E+03  0.17300000000E+03 0. -1.
        6    1    1    2  502    0  0.92321221408E+02 -0.57761247858E+02 -0.19834749559E+03  0.28483380888E+03  0.17300000000E+03 0. -1.
       -6    1    1    2    0  503  0.30386948591E+03 -0.14271934991E+03 -0.49187716430E+03  0.62014322706E+03  0.17300000000E+03 0.  1.
</event>
<event>
 6   0  0.4500850E-05  0.6511154E+03  0.7546771E-02  0.1015835E+00
       21   -1    0    0  501  503  0.00000000000E+00  0.00000000000E+00  0.84919897374E+03  0.84919897374E+03  0.00000000000E+00 0.  1.
       21   -1    0    0  503  504  0.00000000000E+00  0.00000000000E+00 -0.19142760957E+04  0.19142760957E+04  0.00000000000E+00 0. -1.
        6    1    1    2  501    0 -0.27462362578E+03 -0.64887496885E+03  0.19903523801E+01  0.72552727208E+03  0.17300000000E+03 0.  1.
       -6    1    1    2    0  504 -0.35756397141E+03  0.48916990107E+03 -0.76689999295E+03  0.99257432213E+03  0.17300000000E+03 0. -1.
        6    1    1    2  502    0 -0.10284486160E+03  0.64310550490E+02  0.34219261311E+02  0.21403941298E+03  0.17300000000E+03 0. -1.
       -6    1    1    2    0  502  0.73503245879E+03  0.95394517290E+02 -0.33438674273E+03  0.83133406229E+03  0.17300000000E+03 0. -1.
</event>
<event>
 6   0  0.4500850E-05  0.2039415E+03  0.7546771E-02  0.1147814E+00
       21   -1    0    0  501  503  0.00000000000E+00  0.00000000000E+00  0.26933097292E+03  0.26933097292E+03  0.00000000000E+00 0. -1.
       21   -1    0    0  503  504  0.00000000000E+00  0.00000000000E+00 -0.18167372350E+04  0.18167372350E+04  0.00000000000E+00 0. -1.
        6    1    1    2  501    0 -0.16411072255E+02  0.14504806679E+03  0.63923378016E+02  0.23520940294E+03  0.17300000000E+03 0.  1.
       -6    1    1    2    0  502 -0.29853597961E+02 -0.10816013130E+01  0.96933291230E+01  0.17582766506E+03  0.17300000000E+03 0. -1.
        6    1    1    2  502    0 -0.51003005182E+02 -0.13189841852E+02 -0.80722247273E+03  0.82723176858E+03  0.17300000000E+03 0. -1.
       -6    1    1    2    0  504  0.97267675399E+02 -0.13077662363E+03 -0.81380049651E+03  0.84779937137E+03  0.17300000000E+03 0. -1.
</event>
<event>
 6   0  0.4500850E-05  0.3452364E+03  0.7546771E-02  0.1065982E+00
       21   -1    0    0  502  503  0.00000000000E+00  0.00000000000E+00  0.11232037789E+04  0.11232037789E+04  0.00000000000E+00 0.  1.
       21   -1    0    0  501  504  0.00000000000E+00  0.00000000000E+00 -0.10480894825E+04  0.10480894825E+04  0.00000000000E+00 0.  1.
        6    1    1    2  501    0 -0.21490665277E+03 -0.69673773637E+02  0.27897989160E+03  0.39849477293E+03  0.17300000000E+03 0.  1.
       -6    1    1    2    0  504  0.39491728478E+03 -0.27233376436E+03 -0.66619222277E+03  0.83896747179E+03  0.17300000000E+03 0.  1.
        6    1    1    2  502    0  0.18177474229E+03 -0.16559755098E+02  0.50897241115E+02  0.25658490130E+03  0.17300000000E+03 0. -1.
       -6    1    1    2    0  503 -0.36178537430E+03  0.35856729310E+03  0.41142938641E+03  0.67724611534E+03  0.17300000000E+03 0.  1.
</event>
<event>
 6   0  0.4500850E-05  0.5630707E+03  0.7546771E-02  0.9997029E-01
       21   -1    0    0  501  503  0.00000000000E+00  0.00000000000E+00  0.25911763369E+03  0.25911763369E+03  0.00000000000E+00 0.  1.
       21   -1    0    0  502  504  0.00000000000E+00  0.00000000000E+00 -0.12110771874E+04  0.12110771874E+04  0.00000000000E+00 0.  1.
        6    1    1    2  501    0  0.16360388681E+03  0.23305544518E+03 -0.44379342427E+03  0.55494384917E+03  0.17300000000E+03 0.  1.
       -6    1    1    2    0  503 -0.10041950139E+03 -0.15237934260E+03 -0.15921951849E+03  0.29762962786E+03  0.17300000000E+03 0.  1.
        6    1    1    2  502    0 -0.11503749971E+03 -0.20353056046E+03 -0.18820234390E+03  0.34642089664E+03  0.17300000000E+03 0.  1.
       -6    1    1    2    0  504  0.51853114298E+02  0.12285445788E+03 -0.16074426701E+03  0.27120044738E+03  0.17300000000E+03 0. -1.
</event>
<event>
 6   0  0.4500850E-05  0.3234278E+03  0.7546771E-02  0.1077224E+00
       21   -1    0    0  502  503  0.00000000000E+00  0.00000000000E+00  0.17467774978E+04  0.17467774978E+04  0.00000000000E+00 0.  1.
       21   -1    0    0  501  504  0.00000000000E+00  0.00000000000E+00 -0.27820808824E+03  0.27820808824E+03  0.00000000000E+00 0. -1.
        6    1    1    2  501    0  0.14848016659E+03  0.35988648854E+02  0.22504558978E+03  0.32236014052E+03  0.17300000000E+03 0. -1.
       -6    1    1    2    0  503  0.13271540960E+03  0.11377052184E+03  0.11821322383E+04  0.12074447153E+04  0.17300000000E+03 0.  1.
        6    1    1    2  502    0 -0.10761104180E+03 -0.84650459399E+01  0.59025062084E+02  0.21228459971E+03  0.17300000000E+03 0. -1.
       -6    1    1    2    0  504 -0.17358453440E+03 -0.14129412475E+03  0.23665194020E+01  0.28289613056E+03  0.17300000000E+03 0. -1.
</event>
<event>
 6   0  0.4500850E-05  0.3223105E+03  0.7546771E-02  0.1084600E+00
       21   -1    0    0  502  503  0.00000000000E+00  0.00000000000E+00  0.19480118887E+04  0.19480118887E+04  0.00000000000E+00 0.  1.
       21   -1    0    0  503  504  0.00000000000E+00  0.00000000000E+00 -0.20499690651E+03  0.20499690651E+03  0.00000000000E+00 0.  1.
        6    1    1    2  501    0 -0.12567156998E+03  0.13945839254E+03  0.12556274265E+03  0.28449426900E+03  0.17300000000E+03 0.  1.
       -6    1    1    2    0  501 -0.29136127955E+01  0.83937151307E+02  0.10242929719E+03  0.21788688678E+03  0.17300000000E+03 0.  1.
        6    1    1    2  502    0  0.11466027134E+03 -0.13808160343E+03  0.14073952273E+04  0.14293018691E+04  0.17300000000E+03 0.  1.
       -6    1    1    2    0  504  0.13924911434E+02 -0.85313940418E+02  0.10762771503E+03  0.22132577037E+03  0.17300000000E+03 0.  1.
</event>
<event>
 6   0  0.4500850E-05  0.2829677E+03  0.7546771E-02  0.1110267E+00
       21   -1    0    0  501  503  0.00000000000E+00  0.00000000000E+00  0.62285587975E+03  0.62285587975E+03  0.00000000000E+00 0. -1.
       21   -1    0    0  503  504  0.00000000000E+00  0.00000000000E+00 -0.13538879266E+04  0.13538879266E+04  0.00000000000E+00 0.  1.
        6    1    1    2  501    0 -0.16135502259E+03  0.73533710245E+02  0.27119244923E+03  0.36731048770E+03  0.17300000000E+03 0. -1.
       -6    1    1    2    0  504  0.48008722841E+02 -0.22748984884E+03 -0.90257953790E+03  0.94796376040E+03  0.17300000000E+03 0.  1.
        6    1    1    2  502    0  0.77971965797E+02  0.21312067707E+03 -0.28174197511E+03  0.40100821810E+03  0.17300000000E+03 0. -1.
       -6    1    1    2    0  502  0.35374333952E+02 -0.59164538467E+02  0.18209701696E+03  0.26046134013E+03  0.17300000000E+03 0. -1.
</event>
<event>
 6   0  0.4500850E-05  0.2395009E+03  0.7546771E-02  0.1121313E+00
       21   -1    0    0  502  503  0.00000000000E+00  0.00000000000E+00  0.17351190489E+03  0.17351190489E+03  0.00000000000E+00 0.  1.
       21   -1    0    0  501  504  0.00000000000E+00  0.00000000000E+00 -0.24254326460E+04  0.24254326460E+04  0.00000000000E+00 0.  1.
        6    1    1    2  501    0 -0.10293835847E+03 -0.19115985062E+03 -0.11250092113E+04  0.11587549869E+04  0.17300000000E+03 0.  1.
       -6    1    1    2    0  504  0.96887621539E+02 -0.65466173767E+02 -0.15197315525E+02  0.20936329553E+03  0.17300000000E+03 0.  1.
        6    1    1    2  502    0  0.14201608577E+03  0.13449697017E+03 -0.71323599881E+03  0.75953445847E+03  0.17300000000E+03 0.  1.
       -6    1    1    2    0  503 -0.13596534884E+03  0.12212905421E+03 -0.39847821544E+03  0.47129180997E+03  0.17300000000E+03 0.  1.
</event>
<event>
 6   0  0.4500850E-05  0.1873784E+03  0.7546771E-02  0.1161400E+00
       21   -1    0    0  502  503  0.00000000000E+00  0.00000000000E+00  0.21881327420E+04  0.21881327420E+04  0.00000000000E+00 0. -1.
       21   -1    0    0  501  504  0.00000000000E+00  0.00000000000E+00 -0.78107465392E+02  0.78107465392E+02  0.00000000000E+00 0.  1.
        6    1    1    2  501    0 -0.70767924916E+02  0.57607880479E+02  0.35749588425E+03  0.40750346544E+03  0.17300000000E+03 0.  1.
       -6    1    1    2    0  504 -0.26615116176E+02 -0.92601866690E+01  0.23989303305E+03  0.29710567610E+03  0.17300000000E+03 0.  1.
        6    1    1    2  502    0 -0.24488582218E+01 -0.72090276555E+01  0.51403990691E+03  0.54242418169E+03  0.17300000000E+03 0.  1.
       -6    1    1    2    0  503  0.99831899315E+02 -0.41138666155E+02  0.99859645238E+03  0.10192068841E+04  0.17300000000E+03 0. -1.
</event>
<event>
 6   0  0.4500850E-05  0.6995534E+03  0.7546771E-02  0.9744242E-01
       -1   -1    0    0    0  501  0.00000000000E+00  0.00000000000E+00  0.47760736235E+03  0.47760736235E+03  0.00000000000E+00 0.  1.
        1   -1    0    0  502    0  0.00000000000E+00  0.00000000000E+00 -0.94913593818E+03  0.94913593818E+03  0.00000000000E+00 0. -1.
        6    1    1    2  502    0  0.25976126378E+03  0.33767134512E+03 -0.82469750207E+01  0.45988570762E+03  0.17300000000E+03 0.  1.
       -6    1    1    2    0  503 -0.17101983641E+02  0.97303250266E+02 -0.17030726712E+03  0.26209533683E+03  0.17300000000E+03 0.  1.
        6    1    1    2  503    0 -0.44605948183E+02 -0.18094962371E+03 -0.21011749993E+03  0.32986485219E+03  0.17300000000E+03 0. -1.
       -6    1    1    2    0  501 -0.19805333196E+03 -0.25402497168E+03 -0.82856833764E+02  0.37489740388E+03  0.17300000000E+03 0. -1.
</event>
<event>
 6   0  0.4500850E-05  0.9015136E+03  0.7546771E-02  0.9488774E-01
        3   -1    0    0  503    0  0.00000000000E+00  0.00000000000E+00  0.15090125604E+04  0.15090125604E+04  0.00000000000E+00 0.  1.
       -3   -1    0    0    0  501  0.00000000000E+00  0.00000000000E+00 -0.50221739136E+03  0.50221739136E+03  0.00000000000E+00 0. -1.
        6    1    1    2  502    0 -0.10906995407E+03  0.34285235164E+03  0.10965286394E+03  0.41400089430E+03  0.17300000000E+03 0. -1.
       -6    1    1    2    0  502  0.16526126003E+03  0.19117483220E+03 -0.25451495209E+02  0.30730421270E+03  0.17300000000E+03 0. -1.
        6    1    1    2  503    0  0.23471390879E+03 -0.45062455037E+03  0.67486883231E+03  0.86228188268E+03  0.17300000000E+03 0. -1.
       -6    1    1    2    0  501 -0.29090521475E+03 -0.83402633477E+02  0.24772496800E+03  0.42764296207E+03  0.17300000000E+03 0.  1.
</event>
<event>
 6   0  0.4500850E-05  0.2381022E+03  0.7546771E-02  0.1128689E+00
       21   -1    0    0  501  503  0.00000000000E+00  0.00000000000E+00  0.14163471779E+04  0.14163471779E+04  0.00000000000E+00 0.  1.
       21   -1    0    0  503  504  0.00000000000E+00  0.00000000000E+00 -0.25320284990E+03  0.25320284990E+03  0.00000000000E+00 0.  1.
        6    1    1    2  501    0 -0.14075110809E+03  0.68272235478E+02  0.28704109731E+03  0.36985613975E+03  0.17300000000E+03 0.  1.
       -6    1    1    2    0  504  0.59411209370E+02 -0.25420220465E+03  0.33234361358E+03  0.45665055582E+03  0.17300000000E+03 0. -1.
        6    1    1    2  502    0  0.47649685072E+02  0.12705206783E+03 -0.46063173092E+02  0.22464090532E+03  0.17300000000E+03 0.  1.
       -6    1    1    2    0  502  0.33690213652E+02  0.58877901344E+02  0.58982279017E+03  0.61840242688E+03  0.17300000000E+03 0.  1.
</event>
<event>
 6   0  0.4500850E-05  0.2338157E+03  0.7546771E-02  0.1128850E+00
       21   -1    0    0  504  503  0.00000000000E+00  0.00000000000E+00  0.13930471996E+04  0.13930471996E+04  0.00000000000E+00 0.  1.
       21   -1    0    0  502  504  0.00000000000E+00  0.00000000000E+00 -0.92958579105E+03  0.92958579105E+03  0.00000000000E+00 0. -1.
        6    1    1    2  501    0 -0.96054765826E+02 -0.19678800268E+03  0.27070989909E+01  0.27908486957E+03  0.17300000000E+03 0.  1.
       -6    1    1    2    0  503  0.34484846959E+02  0.11100831264E+03  0.78747436407E+03  0.81459003444E+03  0.17300000000E+03 0.  1.
        6    1    1    2  502    0  0.15030947869E+03  0.17590419212E+03 -0.72292190460E+03  0.77851159551E+03  0.17300000000E+03 0. -1.
       -6    1    1    2    0  501 -0.88739559825E+02 -0.90124502087E+02  0.39620185005E+03  0.45044649109E+03  0.17300000000E+03 0.  1.
</event>
<event>
 6   0  0.4500850E-05  0.5667768E+03  0.7546771E-02  0.1032348E+00
       21   -1    0    0  501  503  0.00000000000E+00  0.00000000000E+00  0.63800135849E+03  0.63800135849E+03  0.00000000000E+00 0. -1.
       21   -1    0    0  503  504  0.00000000000E+00  0.00000000000E+00 -0.11707459462E+04  0.11707459462E+04  0.00000000000E+00 0. -1.
        6    1    1    2  501    0  0.20751280133E+02 -0.90487103778E+02  0.11278092287E+03  0.22642232253E+03  0.17300000000E+03 0.  1.
       -6    1    1    2    0  504 -0.10368523049E+03 -0.66474206987E+02 -0.25565852267E+03  0.33235482158E+03  0.17300000000E+03 0. -1.
        6    1    1    2  502    0 -0.26091433271E+03 -0.14051884589E+03 -0.62244023068E+03  0.71076203883E+03  0.17300000000E+03 0. -1.
       -6    1    1    2    0  502  0.34384828307E+03  0.29748015666E+03  0.23257324273E+03  0.53920812179E+03  0.17300000000E+03 0. -1.
</event>
<event>
 6   0  0.4500850E-05  0.2671384E+03  0.7546771E-02  0.1110372E+00
       21   -1    0    0  502  503  0.00000000000E+00  0.00000000000E+00  0.11002720920E+04  0.11002720920E+04  0.00000000000E+00 0.  1.
       21   -1    0    0  501  504  0.00000000000E+00  0.00000000000E+00 -0.45240218211E+03  0.45240218211E+03  0.00000000000E+00 0.  1.
        6    1    1    2  501    0  0.26619223501E+03  0.24530369531E+03  0.37089056050E+02  0.40291042055E+03  0.17300000000E+03 0.  1.
       -6    1    1    2    0  504 -0.13167953285E+02 -0.13920061331E+01 -0.63246713726E+02  0.18467398158E+03  0.17300000000E+03 0. -1.
        6    1    1    2  502    0 -0.15378278767E+03 -0.17936105199E+03  0.37850541658E+02  0.29526462074E+03  0.17300000000E+03 0.  1.
       -6    1    1    2    0  503 -0.99241494050E+02 -0.64550637186E+02  0.63617702596E+03  0.66982525128E+03  0.17300000000E+03 0.  1.
</event>
<event>
 6   0  0.4500850E-05  0.4463950E+03  0.7546771E-02  0.1060993E+00
       21   -1    0    0  501  503  0.00000000000E+00  0.00000000000E+00  0.58648906531E+03  0.58648906531E+03  0.00000000000E+00 0.  1.
       21   -1    0    0  502  504  0.00000000000E+00  0.00000000000E+00 -0.13634108122E+04  0.13634108122E+04  0.00000000000E+00 0. -1.
        6    1    1    2  501    0  0.16431587797E+02 -0.34593072122E+03  0.66002142114E+02  0.39271280056E+03  0.17300000000E+03 0. -1.
       -6    1    1    2    0  503  0.20677183743E+02 -0.28237899857E+02  0.13432033709E+03  0.22180143794E+03  0.17300000000E+03 0. -1.
        6    1    1    2  502    0 -0.20473197182E+02 -0.50710611322E+02  0.68014144999E+02  0.19376697816E+03  0.17300000000E+03 0.  1.
       -6    1    1    2    0  504 -0.16635574358E+02  0.42487923240E+03 -0.10452583711E+04  0.11416186609E+04  0.17300000000E+03 0.  1.
</event>
<event>
 6   0  0.4500850E-05  0.2662858E+03  0.7546771E-02  0.1107872E+00
       21   -1    0    0  504  503  0.00000000000E+00  0.00000000000E+00  0.97001199187E+03  0.97001199187E+03  0.00000000000E+00 0.  1.
       21   -1    0    0  501  504  0.00000000000E+00  0.00000000000E+00 -0.45987133339E+03  0.45987133339E+03  0.00000000000E+00 0. -1.
        6    1    1    2  501    0  0.16816879706E+03 -0.86819301690E+02 -0.22977105326E+01  0.25642272700E+03  0.17300000000E+03 0. -1.
       -6    1    1    2    0  502  0.15207936730E+03 -0.13338566560E+02 -0.17030867032E+03  0.28677533803E+03  0.17300000000E+03 0. -1.
        6    1    1    2  502    0 -0.22673647618E+03  0.14664770475E+03  0.57323484047E+03  0.65684256962E+03  0.17300000000E+03 0.  1.
       -6    1    1    2    0  503 -0.93511688181E+02 -0.46489836496E+02  0.10951219886E+03  0.22984269060E+03  0.17300000000E+03 0.  1.
</event>
<event>
 6   0  0.4500850E-05  0.4442935E+03  0.7546771E-02  0.1048480E+00
       21   -1    0    0  504  503  0.00000000000E+00  0.00000000000E+00  0.36376926085E+03  0.36376926085E+03  0.00000000000E+00 0.  1.
       21   -1    0    0  502  504  0.00000000000E+00  0.00000000000E+00 -0.12580826459E+04  0.12580826459E+04  0.00000000000E+00 0.  1.
        6    1    1    2  501    0 -0.12226878910E+03 -0.69165141765E+02  0.10293728720E+02  0.22308840058E+03  0.17300000000E+03 0.  1.
       -6    1    1    2    0  501  0.34873619871E+03 -0.61331203460E+02 -0.51826231374E+03  0.65107855029E+03  0.17300000000E+03 0.  1.
        6    1    1    2  502    0 -0.11504204739E+03  0.14786805968E+03 -0.46203924537E+03  0.52773942434E+03  0.17300000000E+03 0.  1.
       -6    1    1    2    0  503 -0.11142536222E+03 -0.17371714450E+02  0.75694445301E+02  0.21994553157E+03  0.17300000000E+03 0.  1.
</event>
<event>
 6   0  0.4500850E-05  0.8144746E+03  0.7546771E-02  0.9549444E-01
       21   -1    0    0  502  503  0.00000000000E+00  0.00000000000E+00  0.25938188047E+04  0.25938188047E+04  0.00000000000E+00 0.  1.
       21   -1    0    0  501  504  0.00000000000E+00  0.00000000000E+00 -0.26371979907E+03  0.26371979907E+03  0.00000000000E+00 0. -1.
        6    1    1    2  501    0 -0.37488379307E+02  0.29443438130E+03  0.50709593692E+03  0.61251307963E+03  0.17300000000E+03 0. -1.
       -6    1    1    2    0  503 -0.28662602719E+03  0.29283933139E+03  0.31732354581E+03  0.54638135601E+03  0.17300000000E+03 0. -1.
        6    1    1    2  502    0  0.83653022127E+02 -0.10198694365E+03  0.43524190339E+03  0.48658368165E+03  0.17300000000E+03 0.  1.
       -6    1    1    2    0  504  0.24046138437E+03 -0.48528676905E+03  0.10704376195E+04  0.12120604865E+04  0.17300000000E+03 0.  1.
</event>
<event>
 6   0  0.4500850E-05  0.3259686E+03  0.7546771E-02  0.1084988E+00
       21   -1    0    0  502  503  0.00000000000E+00  0.00000000000E+00  0.69293608127E+03  0.69293608127E+03  0.00000000000E+00 0. -1.
       21   -1    0    0  501  504  0.00000000000E+00  0.00000000000E+00 -0.12016443046E+04  0.12016443046E+04  0.00000000000E+00 0. -1.
        6    1    1    2  501    0 -0.12080783658E+03 -0.12263107847E+03 -0.42900975606E+03  0.49356993991E+03  0.17300000000E+03 0. -1.
       -6    1    1    2    0  503  0.27059662200E+03 -0.98429874518E+02  0.45414264464E+03  0.56487654732E+03  0.17300000000E+03 0. -1.
        6    1    1    2  502    0 -0.39281904741E+02  0.33634801771E+03 -0.44288089491E+03  0.58373413823E+03  0.17300000000E+03 0. -1.
       -6    1    1    2    0  504 -0.11050688068E+03 -0.11528706472E+03 -0.90960216991E+02  0.25239976039E+03  0.17300000000E+03 0.  1.
</event>
<event>
 6   0  0.4500850E-05  0.2985112E+03  0.7546771E-02  0.1097849E+00
       21   -1    0    0  501  503  0.00000000000E+00  0.00000000000E+00  0.34797172504E+03  0.34797172504E+03  0.00000000000E+00 0. -1.
       21   -1    0    0  502  504  0.00000000000E+00  0.00000000000E+00 -0.17157585607E+04  0.17157585607E+04  0.00000000000E+00 0. -1.
        6    1    1    2  501    0  0.93942030874E+02 -0.94582837757E+02  0.64621427012E+02  0.22776291883E+03  0.17300000000E+03 0. -1.
       -6    1    1    2    0  503 -0.25807591252E+03  0.20412026496E+03 -0.46143776894E+03  0.59255554490E+03  0.17300000000E+03 0. -1.
        6    1    1    2  502    0  0.23363115627E+03  0.10095866425E+02 -0.97944761100E+03  0.10217299381E+04  0.17300000000E+03 0. -1.
       -6    1    1    2    0  504 -0.69497274623E+02 -0.11963329363E+03  0.84771173042E+01  0.22168188388E+03  0.17300000000E+03 0. -1.
</event>
<event>
 6   0  0.4500850E-05  0.5104741E+03  0.7546771E-02  0.1038784E+00
       21   -1    0    0  504  503  0.00000000000E+00  0.00000000000E+00  0.12091447501E+04  0.12091447501E+04  0.00000000000E+00 0. -1.
       21   -1    0    0  501  504  0.00000000000E+00  0.00000000000E+00 -0.35682788758E+03  0.35682788758E+03  0.00000000000E+00 0.  1.
        6    1    1    2  501    0 -0.38594450445E+03  0.12502407835E+03  0.75273195269E+02  0.44741394101E+03  0.17300000000E+03 0.  1.
       -6    1    1    2    0  502 -0.12391654007E+02  0.92639383034E+02  0.15051705418E+03  0.24762873819E+03  0.17300000000E+03 0.  1.
        6    1    1    2  502    0  0.31177215287E+03 -0.10306210754E+03  0.31541043332E+03  0.48706920942E+03  0.17300000000E+03 0. -1.
       -6    1    1    2    0  503  0.86564005584E+02 -0.11460135384E+03  0.31111617970E+03  0.38386074902E+03  0.17300000000E+03 0. -1.
</event>
<event>
 6   0  0.4500850E-05  0.3033758E+03  0.7546771E-02  0.1102340E+00
       21   -1    0    0  504  503  0.00000000000E+00  0.00000000000E+00  0.12811661731E+04  0.12811661731E+04  0.00000000000E+00 0. -1.
       21   -1    0    0  502  504  0.00000000000E+00  0.00000000000E+00 -0.66949362782E+03  0.66949362782E+03  0.00000000000E+00 0. -1.
        6    1    1    2  501    0  0.18156599002E+02  0.22437668213E+03  0.11695389869E+03  0.30705336994E+03  0.17300000000E+03 0.  1.
       -6    1    1    2    0  503  0.23976379351E+03 -0.99295407520E+02  0.92688056455E+03  0.97794827858E+03  0.17300000000E+03 0. -1.
        6    1    1    2  502    0 -0.57708983547E+01 -0.17442129420E+01 -0.11273130951E+03  0.20657612082E+03  0.17300000000E+03 0. -1.
       -6    1    1    2    0  501 -0.25214949416E+03 -0.12333706167E+03 -0.31943060839E+03  0.45908203163E+03  0.17300000000E+03 0. -1.
</event>
<event>
 6   0  0.4500850E-05  0.3649140E+03  0.7546771E-02  0.1078229E+00
       21   -1    0    0  501  503  0.00000000000E+00  0.00000000000E+00  0.36835628972E+03  0.36835628972E+03  0.00000000000E+00 0.  1.
       21   -1    0    0  502  504  0.00000000000E+00  0.00000000000E+00 -0.16082653432E+04  0.16082653432E+04  0.00000000000E+00 0. -1.
        6    1    1    2  501    0  0.63146982112E+02 -0.91027423338E+02 -0.11341996181E+03  0.23466278121E+03  0.17300000000E+03 0. -1.
       -6    1    1    2    0  503  0.51828587077E+02  0.88737715778E+02 -0.83844790747E+03  0.86225545993E+03  0.17300000000E+03 0. -1.
        6    1    1    2  502    0  0.16628478678E+03  0.20304301912E+03 -0.36914170525E+03  0.48484192938E+03  0.17300000000E+03 0.  1.
       -6    1    1    2    0  504 -0.28126035597E+03 -0.20075331156E+03  0.81100521085E+02  0.39486146237E+03  0.17300000000E+03 0.  1.
</event>
<event>
 6   0  0.4500850E-05  0.2526808E+03  0.7546771E-02  0.1112357E+00
       21   -1    0    0  502  503  0.00000000000E+00  0.00000000000E+00  0.17764489537E+04  0.17764489537E+04  0.00000000000E+00 0.  1.
       21   -1    0    0  501  504  0.00000000000E+00  0.00000000000E+00 -0.18174558381E+03  0.18174558381E+03  0.00000000000E+00 0. -1.
        6    1    1    2  501    0 -0.13758159917E+03  0.61070427457E+02  0.29023827673E+03  0.36989937931E+03  0.17300000000E+03 0. -1.
       -6    1    1    2    0  504 -0.15157354424E+03 -0.10275998132E+03  0.66738578797E+03  0.71334910321E+03  0.17300000000E+03 0.  1.
        6    1    1    2  502    0  0.12098816968E+03 -0.14453916816E+03  0.44908169871E+03  0.51684918541E+03  0.17300000000E+03 0.  1.
       -6    1    1    2    0  503  0.16816697374E+03  0.18622872202E+03  0.18799760650E+03  0.35809686959E+03  0.17300000000E+03 0. -1.
</event>
<event>
 6   0  0.4500850E-05  0.5785082E+03  0.7546771E-02  0.1025839E+00
       21   -1    0    0  502  503  0.00000000000E+00  0.00000000000E+00  0.34866523637E+03  0.34866523637E+03  0.00000000000E+00 0.  1.
       21   -1    0    0  501  504  0.00000000000E+00  0.00000000000E+00 -0.22140435256E+04  0.22140435256E+04  0.00000000000E+00 0. -1.
        6    1    1    2  501    0  0.95522266061E+02  0.10556934356E+03 -0.76806945209E+03  0.80008066646E+03  0.17300000000E+03 0. -1.
       -6    1    1    2    0  504  0.14845370148E+03 -0.20347431967E+03  0.35385236424E+02  0.30760594144E+03  0.17300000000E+03 0.  1.
        6    1    1    2  502    0  0.14071130727E+03 -0.14850709589E+03 -0.57450702148E+02  0.27401389144E+03  0.17300000000E+03 0.  1.
       -6    1    1    2    0  503 -0.38468727482E+03  0.24641207200E+03 -0.10752433714E+04  0.11810082626E+04  0.17300000000E+03 0. -1.
</event>
<event>
 6   0  0.4500850E-05  0.3035171E+03  0.7546771E-02  0.1099399E+00
       21   -1    0    0  501  503  0.00000000000E+00  0.00000000000E+00  0.78331954087E+03  0.78331954087E+03  0.00000000000E+00 0. -1.
       21   -1    0    0  503  504  0.00000000000E+00  0.00000000000E+00 -0.58096488644E+03  0.58096488644E+03  0.00000000000E+00 0. -1.
        6    1    1    2  501    0 -0.35354105922E+03 -0.10072649044E+02  0.34359154030E+03  0.52256758929E+03  0.17300000000E+03 0. -1.
       -6    1    1    2    0  504  0.22590878773E+03  0.54884940318E+02 -0.20679723540E+03  0.35600735051E+03  0.17300000000E+03 0. -1.
        6    1    1    2  502    0 -0.53604205534E+02  0.83809862987E+02  0.31028196196E+02  0.20196349409E+03  0.17300000000E+03 0. -1.
       -6    1    1    2    0  502  0.18123647702E+03 -0.12862215426E+03  0.34532153336E+02  0.28374599342E+03  0.17300000000E+03 0. -1.
</event>
<event>
 6   0  0.4500850E-05  0.2455535E+03  0.7546771E-02  0.1126730E+00
       21   -1    0    0  504  503  0.00000000000E+00  0.00000000000E+00  0.25085186987E+03  0.25085186987E+03  0.00000000000E+00 0.  1.
       21   -1    0    0  501  504  0.00000000000E+00  0.00000000000E+00 -0.14903358567E+04  0.14903358567E+04  0.00000000000E+00 0.  1.
        6    1    1    2  501    0  0.62641486501E+02 -0.20533444999E+03 -0.45152442483E+03  0.52904583771E+03  0.17300000000E+03 0.  1.
       -6    1    1    2    0  502  0.11917139526E+03  0.99553156398E+02 -0.73307495006E+03  0.76905171139E+03  0.17300000000E+03 0.  1.
        6    1    1    2  502    0 -0.18507691647E+03  0.54384124312E+02 -0.35972478369E+02  0.26159915364E+03  0.17300000000E+03 0.  1.
       -6    1    1    2    0  503  0.32640347033E+01  0.51397169281E+02 -0.18912133588E+02  0.18149102383E+03  0.17300000000E+03 0. -1.
</event>
<event>
 6   0  0.4500850E-05  0.5264642E+03  0.7546771E-02  0.1043988E+00
       21   -1    0    0  501  503  0.00000000000E+00  0.00000000000E+00  0.20246178276E+03  0.20246178276E+03  0.00000000000E+00 0.  1.
       21   -1    0    0  502  504  0.00000000000E+00  0.00000000000E+00 -0.28652144651E+04  0.28652144651E+04  0.00000000000E+00 0. -1.
        6    1    1    2  501    0 -0.37530666399E+03 -0.14538751411E+02 -0.54194031791E+03  0.68168524665E+03  0.17300000000E+03 0. -1.
       -6    1    1    2    0  504  0.24285110813E+03 -0.28925403655E+01 -0.11405490240E+04  0.11788834140E+04  0.17300000000E+03 0. -1.
        6    1    1    2  502    0  0.15274540105E+03  0.25873704888E+02 -0.10045419200E+04  0.10310354384E+04  0.17300000000E+03 0. -1.
       -6    1    1    2    0  503 -0.20289845186E+02 -0.84424131113E+01  0.24278579657E+02  0.17607214881E+03  0.17300000000E+03 0.  1.
</event>
<event>
 6   0  0.4500850E-05  0.8102144E+03  0.7546771E-02  0.9957576E-01
       21   -1    0    0  502  503  0.00000000000E+00  0.00000000000E+00  0.31927103556E+03  0.31927103556E+03  0.00000000000E+00 0. -1.
       21   -1    0    0  501  504  0.00000000000E+00  0.00000000000E+00 -0.33659101080E+04  0.33659101080E+04  0.00000000000E+00 0. -1.
        6    1    1    2  501    0  0.63954944654E+03  0.13190478493E+03 -0.53243592373E+03  0.86013916301E+03  0.17300000000E+03 0.  1.
       -6    1    1    2    0  504 -0.25581464218E+03 -0.22973839609E+03 -0.11726104092E+04  0.12341657237E+04  0.17300000000E+03 0. -1.
        6    1    1    2  502    0 -0.40278548269E+03 -0.12828015270E+02 -0.13109561705E+04  0.13823660094E+04  0.17300000000E+03 0. -1.
       -6    1    1    2    0  503  0.19050678332E+02  0.11066162642E+03 -0.30636568961E+02  0.20851024739E+03  0.17300000000E+03 0. -1.
</event>
<event>
 6   0  0.4500850E-05  0.2220512E+03  0.7546771E-02  0.1141926E+00
       21   -1    0    0  504  503  0.00000000000E+00  0.00000000000E+00  0.37427582462E+03  0.37427582462E+03  0.00000000000E+00 0. -1.
       21   -1    0    0  502  504  0.00000000000E+00  0.00000000000E+00 -0.72362039708E+03  0.72362039708E+03  0.00000000000E+00 0. -1.
        6    1    1    2  501    0 -0.37944842158E+02 -0.12888889906E+03 -0.16164795643E+02  0.21964166264E+03  0.17300000000E+03 0. -1.
       -6    1    1    2    0  503  0.13099415388E+03 -0.39698214548E+01  0.50369031694E+02  0.22280320282E+03  0.17300000000E+03 0. -1.
        6    1    1    2  502    0  0.22648567075E+02 -0.12846616734E+02  0.22585185799E+02  0.17640035082E+03  0.17300000000E+03 0. -1.
       -6    1    1    2    0  501 -0.11569787879E+03  0.14570533725E+03 -0.40613399432E+03  0.47905100542E+03  0.17300000000E+03 0. -1.
</event>
<event>
 6   0  0.4500850E-05  0.2575710E+03  0.7546771E-02  0.1120777E+00
       21   -1    0    0  504  503  0.00000000000E+00  0.00000000000E+00  0.93353162741E+03  0.93353162741E+03  0.00000000000E+00 0. -1.
       21   -1    0    0  502  504  0.00000000000E+00  0.00000000000E+00 -0.50008034030E+03  0.50008034030E+03  0.00000000000E+00 0.  1.
        6    1    1    2  501    0 -0.70624173014E+02 -0.31143599804E+02  0.39256110723E+03  0.43587947936E+03  0.17300000000E+03 0. -1.
       -6    1    1    2    0  501 -0.33083258306E+02  0.96213868729E+02  0.92391315394E+01  0.20091284695E+03  0.17300000000E+03 0.  1.
        6    1    1    2  502    0  0.34251039903E+02  0.18165404304E+03 -0.26626836441E+03  0.36742232781E+03  0.17300000000E+03 0. -1.
       -6    1    1    2    0  503  0.69456391418E+02 -0.24672431196E+03  0.29791941276E+03  0.42939731359E+03  0.17300000000E+03 0.  1.
</event>
<event>
 6   0  0.4500850E-05  0.3397441E+03  0.7546771E-02  0.1080956E+00
       21   -1    0    0  502  503  0.00000000000E+00  0.00000000000E+00  0.41412545303E+03  0.41412545303E+03  0.00000000000E+00 0. -1.
       21   -1    0    0  501  504  0.00000000000E+00  0.00000000000E+00 -0.11200723610E+04  0.11200723610E+04  0.00000000000E+00 0.  1.
        6    1    1    2  501    0 -0.14584759954E+03  0.20564855460E+03 -0.29422310435E+03  0.42433369585E+03  0.17300000000E+03 0.  1.
       -6    1    1    2    0  504 -0.26586590930E+03 -0.70340094434E+02 -0.23201301960E+03  0.39923859016E+03  0.17300000000E+03 0. -1.
        6    1    1    2  502    0 -0.29850592037E+02 -0.98850758486E+02  0.19195022661E+01  0.20148254214E+03  0.17300000000E+03 0.  1.
       -6    1    1    2    0  503  0.44156410088E+03 -0.36457701678E+02 -0.18163028632E+03  0.50914298592E+03  0.17300000000E+03 0. -1.
</event>
<event>
 6   0  0.4500850E-05  0.2344235E+03  0.7546771E-02  0.1124298E+00
       21   -1    0    0  502  503  0.00000000000E+00  0.00000000000E+00  0.91938930786E+03  0.91938930786E+03  0.00000000000E+00 0. -1.
       21   -1    0    0  503  504  0.00000000000E+00  0.00000000000E+00 -0.97555478534E+03  0.97555478534E+03  0.00000000000E+00 0. -1.
        6    1    1    2  501    0  0.25763685286E+03 -0.11033935206E+02 -0.26648793117E+03  0.40919837871E+03  0.17300000000E+03 0.  1.
       -6    1    1    2    0  504 -0.43068962539E+02  0.99255940168E+02 -0.50002503254E+03  0.54005621037E+03  0.17300000000E+03 0. -1.
        6    1    1    2  502    0 -0.10399449478E+03  0.26538377099E+02  0.67843190191E+03  0.70832053897E+03  0.17300000000E+03 0. -1.
       -6    1    1    2    0  501 -0.11057339554E+03 -0.11476038206E+03  0.31915584323E+02  0.23736896515E+03  0.17300000000E+03 0.  1.
</event>
<event>
 6   0  0.4500850E-05  0.2564992E+03  0.7546771E-02  0.1115978E+00
       21   -1    0    0  501  503  0.00000000000E+00  0.00000000000E+00  0.15326302476E+04  0.15326302476E+04  0.00000000000E+00 0.  1.
       21   -1    0    0  503  504  0.00000000000E+00  0.00000000000E+00 -0.77228986166E+03  0.77228986166E+03  0.00000000000E+00 0.  1.
        6    1    1    2  501    0 -0.83897269688E+02 -0.90638959097E+02  0.12741908339E+04  0.12917993087E+04  0.17300000000E+03 0.  1.
       -6    1    1    2    0  502  0.24121480328E+03 -0.10917492583E+03 -0.25742087969E+03  0.40779683060E+03  0.17300000000E+03 0.  1.
        6    1    1    2  502    0 -0.12995881460E+03  0.23997720221E+03 -0.42446743843E+02  0.32589734141E+03  0.17300000000E+03 0. -1.
       -6    1    1    2    0  504 -0.27358718984E+02 -0.40163317284E+02 -0.21398282446E+03  0.27942662852E+03  0.17300000000E+03 0.  1.
</event>
<event>
 6   0  0.4500850E-05  0.3141068E+03  0.7546771E-02  0.1084608E+00
       21   -1    0    0  504  503  0.00000000000E+00  0.00000000000E+00  0.59429244648E+03  0.59429244648E+03  0.00000000000E+00 0. -1.
       21   -1    0    0  502  504  0.00000000000E+00  0.00000000000E+00 -0.14093120076E+04  0.14093120076E+04  0.00000000000E+00 0.  1.
        6    1    1    2  501    0  0.81848648818E+02  0.50719406247E+03 -0.15405295163E+03  0.56356572840E+03  0.17300000000E+03 0.  1.
       -6    1    1    2    0  501 -0.12515274101E+03 -0.12812201986E+03 -0.26442334613E+03  0.36321779490E+03  0.17300000000E+03 0.  1.
        6    1    1    2  502    0  0.66430603836E+01 -0.16860290697E+03 -0.65582698228E+03  0.69893426098E+03  0.17300000000E+03 0.  1.
       -6    1    1    2    0  503  0.36661031805E+02 -0.21046913565E+03  0.25928371891E+03  0.37788666979E+03  0.17300000000E+03 0. -1.
</event>
<event>
 6   0  0.4500850E-05  0.2147165E+03  0.7546771E-02  0.1140571E+00
       21   -1    0    0  501  503  0.00000000000E+00  0.00000000000E+00  0.23305005565E+04  0.23305005565E+04  0.00000000000E+00 0.  1.
       21   -1    0    0  502  504  0.00000000000E+00  0.00000000000E+00 -0.18728429877E+03  0.18728429877E+03  0.00000000000E+00 0. -1.
        6    1    1    2  501    0 -0.60717689540E+02 -0.35406050780E+02  0.14006784827E+04  0.14130709247E+04  0.17300000000E+03 0.  1.
       -6    1    1    2    0  503  0.19202525049E+03  0.38336725887E+02  0.38619536990E+03  0.46628238773E+03  0.17300000000E+03 0. -1.
        6    1    1    2  502    0 -0.43582452304E+02  0.89021141007E+02 -0.24878480447E+02  0.20092817743E+03  0.17300000000E+03 0. -1.
       -6    1    1    2    0  504 -0.87725108647E+02 -0.91951816113E+02  0.38122088555E+03  0.43750336542E+03  0.17300000000E+03 0. -1.
</event>
<event>
 6   0  0.4500850E-05  0.4011433E+03  0.7546771E-02  0.1053484E+00
       21   -1    0    0  501  503  0.00000000000E+00  0.00000000000E+00  0.80978289070E+03  0.80978289070E+03  0.00000000000E+00 0.  1.
       21   -1    0    0  502  504  0.00000000000E+00  0.00000000000E+00 -0.10193023890E+04  0.10193023890E+04  0.00000000000E+00 0.  1.
        6    1    1    2  501    0  0.27485383486E+03 -0.17752826035E+03  0.65312450968E+02  0.37583989944E+03  0.17300000000E+03 0.  1.
       -6    1    1    2    0  504  0.35602199567E+03  0.79222714666E+02  0.25747808972E+03  0.47880253404E+03  0.17300000000E+03 0.  1.
        6    1    1    2  502    0 -0.16484053883E+03  0.66482787820E+02 -0.37956805875E+03  0.45342394681E+03  0.17300000000E+03 0. -1.
       -6    1    1    2    0  503 -0.46603529170E+03  0.31822757866E+02 -0.15274198026E+03  0.52101889943E+03  0.17300000000E+03 0.  1.
</event>
<event>
 6   0  0.4500850E-05  0.3661350E+03  0.7546771E-02  0.1057204E+00
       21   -1    0    0  501  503  0.00000000000E+00  0.00000000000E+00  0.50312611572E+03  0.50312611572E+03  0.00000000000E+00 0. -1.
       21   -1    0    0  502  504  0.00000000000E+00  0.00000000000E+00 -0.15765444365E+04  0.15765444365E+04  0.00000000000E+00 0. -1.
        6    1    1    2  501    0 -0.26210699919E+03 -0.34842737577E+02 -0.44250150574E+03  0.54373769225E+03  0.17300000000E+03 0. -1.
       -6    1    1    2    0  503  0.97933696513E+02  0.25149419267E+03  0.62720102178E+01  0.32063792036E+03  0.17300000000E+03 0.  1.
        6    1    1    2  502    0  0.29517247843E+03 -0.44886864152E+03 -0.74822997380E+02  0.56933059842E+03  0.17300000000E+03 0. -1.
       -6    1    1    2    0  504 -0.13099917575E+03  0.23221718643E+03 -0.56236582783E+03  0.64596434114E+03  0.17300000000E+03 0.  1.
</event>
<event>
 6   0  0.4500850E-05  0.4272658E+03  0.7546771E-02  0.1056197E+00
       21   -1    0    0  502  503  0.00000000000E+00  0.00000000000E+00  0.20427004903E+04  0.20427004903E+04  0.00000000000E+00 0.  1.
       21   -1    0    0  501  504  0.00000000000E+00  0.00000000000E+00 -0.10218707579E+04  0.10218707579E+04  0.00000000000E+00 0.  1.
        6    1    1    2  501    0  0.40342078466E+03  0.18610773801E+02 -0.67624808299E+03  0.80643360554E+03  0.17300000000E+03 0.  1.
       -6    1    1    2    0  504  0.14868938599E+03 -0.31553743135E+02  0.30256229926E+03  0.38023297745E+03  0.17300000000E+03 0. -1.
        6    1    1    2  502    0 -0.20326132056E+03 -0.14650316281E+03  0.14239186031E+04  0.14561083509E+04  0.17300000000E+03 0.  1.
       -6    1    1    2    0  503 -0.34884885008E+03  0.15944613215E+03 -0.29403086951E+02  0.42179631433E+03  0.17300000000E+03 0. -1.
</event>
<event>
 6   0  0.4500850E-05  0.6488805E+03  0.7546771E-02  0.9892137E-01
        2   -1    0    0  503    0  0.00000000000E+00  0.00000000000E+00  0.15024983090E+04  0.15024983090E+04  0.00000000000E+00 0. -1.
       -2   -1    0    0    0  501  0.00000000000E+00  0.00000000000E+00 -0.51336784028E+03  0.51336784028E+03  0.00000000000E+00 0.  1.
        6    1    1    2  502    0 -0.25308780002E+03  0.23065881248E+03 -0.33533925116E+02  0.38511095340E+03  0.17300000000E+03 0.  1.
       -6    1    1    2    0  501  0.13560415712E+03 -0.57482845296E+02 -0.20563562460E+03  0.30644375509E+03  0.17300000000E+03 0. -1.
        6    1    1    2  503    0  0.14415063262E+03  0.22977782614E+02  0.46855098622E+03  0.52036180689E+03  0.17300000000E+03 0.  1.
       -6    1    1    2    0  502 -0.26666989721E+02 -0.19615374980E+03  0.75974903223E+03  0.80394963392E+03  0.17300000000E+03 0. -1.
</event>
<event>
 6   0  0.4500850E-05  0.2331421E+03  0.7546771E-02  0.1126344E+00
       21   -1    0    0  501  503  0.00000000000E+00  0.00000000000E+00  0.17958623391E+04  0.17958623391E+04  0.00000000000E+00 0.  1.
       21   -1    0    0  502  504  0.00000000000E+00  0.00000000000E+00 -0.58381447745E+03  0.58381447745E+03  0.00000000000E+00 0. -1.
        6    1    1    2  501    0  0.99593445319E+02  0.64683228290E+02  0.13730092121E+04  0.13889514285E+04  0.17300000000E+03 0.  1.
       -6    1    1    2    0  503 -0.15843090183E+03 -0.18559404335E+03  0.88357709010E+02  0.31189995884E+03  0.17300000000E+03 0. -1.
        6    1    1    2  502    0  0.31446253333E+02 -0.95308673458E+02  0.10692002665E+03  0.22678955484E+03  0.17300000000E+03 0.  1.
       -6    1    1    2    0  504  0.27391203179E+02  0.21621948851E+03 -0.35623908609E+03  0.45203587433E+03  0.17300000000E+03 0. -1.
</event>
<event>
 6   0  0.4500850E-05  0.4956907E+03  0.7546771E-02  0.1014910E+00
       -2   -1    0    0    0  501  0.00000000000E+00  0.00000000000E+00  0.31505530684E+03  0.31505530684E+03  0.00000000000E+00 0. -1.
        2   -1    0    0  503    0  0.00000000000E+00  0.00000000000E+00 -0.11760715158E+04  0.11760715158E+04  0.00000000000E+00 0.  1.
        6    1    1    2  502    0  0.73561881723E+02 -0.12013962563E+03 -0.13491520679E+03  0.26072206104E+03  0.17300000000E+03 0. -1.
       -6    1    1    2    0  502 -0.27558024749E+03  0.25064100315E+02 -0.61989160702E+03  0.70054784732E+03  0.17300000000E+03 0.  1.
        6    1    1    2  503    0 -0.31794512425E+01 -0.86559899370E+02 -0.19970200439E+02  0.19450073006E+03  0.17300000000E+03 0.  1.
       -6    1    1    2    0  501  0.20519781701E+03  0.18163542468E+03 -0.86239194742E+02  0.33535618425E+03  0.17300000000E+03 0. -1.
</event>
<event>
 6   0  0.4500850E-05  0.4005836E+03  0.7546771E-02  0.1069510E+00
       21   -1    0    0  504  503  0.00000000000E+00  0.00000000000E+00  0.23159727011E+03  0.23159727011E+03  0.00000000000E+00 0.  1.
       21   -1    0    0  501  504  0.00000000000E+00  0.00000000000E+00 -0.12484617848E+04  0.12484617848E+04  0.00000000000E+00 0.  1.
        6    1    1    2  501    0 -0.83432794525E+01 -0.77770469244E+02 -0.34793210185E+03  0.39636296963E+03  0.17300000000E+03 0. -1.
       -6    1    1    2    0  503 -0.26463595737E+02 -0.81155875490E+02  0.11071351419E+02  0.19323087964E+03  0.17300000000E+03 0. -1.
        6    1    1    2  502    0  0.10556292256E+03  0.20852615459E+03 -0.15189944495E+03  0.32806878721E+03  0.17300000000E+03 0.  1.
       -6    1    1    2    0  502 -0.70756047375E+02 -0.49599809854E+02 -0.52810431930E+03  0.56239641841E+03  0.17300000000E+03 0.  1.
</event>
<event>
 6   0  0.4500850E-05  0.2883369E+03  0.7546771E-02  0.1096833E+00
       21   -1    0    0  502  503  0.00000000000E+00  0.00000000000E+00  0.50223033989E+03  0.50223033989E+03  0.00000000000E+00 0.  1.
       21   -1    0    0  503  504  0.00000000000E+00  0.00000000000E+00 -0.17017183475E+04  0.17017183475E+04  0.00000000000E+00 0.  1.
        6    1    1    2  501    0 -0.17767827971E+03  0.12095564060E+03 -0.10146343751E+04  0.10514807432E+04  0.17300000000E+03 0.  1.
       -6    1    1    2    0  501 -0.10895578553E+03 -0.28611620853E+01  0.19493812603E+02  0.20539853500E+03  0.17300000000E+03 0.  1.
        6    1    1    2  502    0  0.25550994366E+03 -0.27864036329E+03  0.21258837609E+03  0.46695674426E+03  0.17300000000E+03 0.  1.
       -6    1    1    2    0  504  0.31124121582E+02  0.16054588477E+03 -0.41693582115E+03  0.48011266492E+03  0.17300000000E+03 0. -1.
</event>
<event>
 6   0  0.4500850E-05  0.3470634E+03  0.7546771E-02  0.1075823E+00
       21   -1    0    0  501  503  0.00000000000E+00  0.00000000000E+00  0.10888253286E+04  0.10888253286E+04  0.00000000000E+00 0. -1.
       21   -1    0    0  502  504  0.00000000000E+00  0.00000000000E+00 -0.47252903585E+03  0.47252903585E+03  0.00000000000E+00 0.  1.
        6    1    1    2  501    0 -0.18647392838E+03  0.40237386635E+02  0.29288736929E+03  0.39000459528E+03  0.17300000000E+03 0. -1.
       -6    1    1    2    0  503  0.33190962273E+03 -0.22395016020E+03  0.11302930615E+03  0.45057995513E+03  0.17300000000E+03 0.  1.
        6    1    1    2  502    0 -0.23928182178E+03 -0.11587034371E+03  0.17048934231E+03  0.36010740430E+03  0.17300000000E+03 0. -1.
       -6    1    1    2    0  504  0.93846127438E+02  0.29958311728E+03  0.39890275049E+02  0.36066240979E+03  0.17300000000E+03 0.  1.
</event>
<event>
 6   0  0.4500850E-05  0.6071051E+03  0.7546771E-02  0.1003231E+00
       21   -1    0    0  501  503  0.00000000000E+00  0.00000000000E+00  0.31497574138E+04  0.31497574138E+04  0.00000000000E+00 0. -1.
       21   -1    0    0  503  504  0.00000000000E+00  0.00000000000E+00 -0.28616568128E+03  0.28616568128E+03  0.00000000000E+00 0. -1.
        6    1    1    2  501    0  0.17547456880E+03 -0.44334383048E+03  0.12373314508E+04  0.13372595842E+04  0.17300000000E+03 0. -1.
       -6    1    1    2    0  504 -0.28370699668E+03  0.31095287518E+03  0.93146241714E+03  0.10366931007E+04  0.17300000000E+03 0. -1.
        6    1    1    2  502    0 -0.20676361179E+03  0.18209425148E+03  0.60702352769E+03  0.68870608445E+03  0.17300000000E+03 0. -1.
       -6    1    1    2    0  502  0.31499603966E+03 -0.49703296184E+02  0.87774336894E+02  0.37326432574E+03  0.17300000000E+03 0.  1.
</event>
<event>
 6   0  0.4500850E-05  0.2238737E+03  0.7546771E-02  0.1135156E+00
       21   -1    0    0  502  503  0.00000000000E+00  0.00000000000E+00  0.25506542049E+04  0.25506542049E+04  0.00000000000E+00 0.  1.
       21   -1    0    0  501  504  0.00000000000E+00  0.00000000000E+00 -0.89432897524E+02  0.89432897524E+02  0.00000000000E+00 0.  1.
        6    1    1    2  501    0 -0.25158338241E+03 -0.12988369880E+02  0.88385201597E+03  0.93519317907E+03  0.17300000000E+03 0.  1.
       -6    1    1    2    0  503  0.11975998778E+03  0.22981273296E+02  0.60968376684E+03  0.64537887255E+03  0.17300000000E+03 0. -1.
        6    1    1    2  502    0  0.38704934510E+02 -0.38630581229E+02  0.71769046325E+03  0.74026954199E+03  0.17300000000E+03 0.  1.
       -6    1    1    2    0  504  0.93118460117E+02  0.28637677813E+02  0.24999506132E+03  0.31924550880E+03  0.17300000000E+03 0.  1.
</event>
<event>
 6   0  0.4500850E-05  0.2767168E+03  0.7546771E-02  0.1113079E+00
       21   -1    0    0  502  503  0.00000000000E+00  0.00000000000E+00  0.74497003504E+03  0.74497003504E+03  0.00000000000E+00 0.  1.
       21   -1    0    0  501  504  0.00000000000E+00  0.00000000000E+00 -0.56597589640E+03  0.56597589640E+03  0.00000000000E+00 0.  1.
        6    1    1    2  501    0 -0.38073029086E+02  0.83977288770E+02  0.15483599594E+02  0.19664811830E+03  0.17300000000E+03 0. -1.
       -6    1    1    2    0  504  0.66766335769E+02  0.18227306197E+03 -0.28357380431E+03  0.38473928211E+03  0.17300000000E+03 0.  1.
        6    1    1    2  502    0  0.19008937938E+02 -0.21963432600E+03  0.46538800024E+03  0.54324540278E+03  0.17300000000E+03 0.  1.
       -6    1    1    2    0  503 -0.47702244621E+02 -0.46616024736E+02 -0.18303656884E+02  0.18631312825E+03  0.17300000000E+03 0. -1.
</event>
<event>
 6   0  0.4500850E-05  0.5329871E+03  0.7546771E-02  0.1032033E+00
       21   -1    0    0  501  503  0.00000000000E+00  0.00000000000E+00  0.79210228202E+03  0.79210228202E+03  0.00000000000E+00 0.  1.
       21   -1    0    0  502  504  0.00000000000E+00  0.00000000000E+00 -0.18417559000E+04  0.18417559000E+04  0.00000000000E+00 0.  1.
        6    1    1    2  501    0  0.37170947740E+03  0.36453897993E+03  0.29620881849E+03  0.62347836180E+03  0.17300000000E+03 0.  1.
       -6    1    1    2    0  504  0.18807270029E+02 -0.98715923493E+01 -0.49830697383E+03  0.52791097916E+03  0.17300000000E+03 0.  1.
        6    1    1    2  502    0 -0.38632156567E+03 -0.70673668546E+03 -0.58630054859E+03  0.10111371954E+04  0.17300000000E+03 0.  1.
       -6    1    1    2    0  503 -0.41951817600E+01  0.35206929788E+03 -0.26125491400E+03  0.47133164561E+03  0.17300000000E+03 0. -1.
</event>
<event>
 6   0  0.4500850E-05  0.2816323E+03  0.7546771E-02  0.1096437E+00
       21   -1    0    0  502  503  0.00000000000E+00  0.00000000000E+00  0.59889255732E+03  0.59889255732E+03  0.00000000000E+00 0.  1.
       21   -1    0    0  501  504  0.00000000000E+00  0.00000000000E+00 -0.74060694638E+03  0.74060694638E+03  0.00000000000E+00 0.  1.
        6    1    1    2  501    0  0.95797765310E+02  0.75100608665E+02 -0.10727823250E+03  0.23718122276E+03  0.17300000000E+03 0.  1.
       -6    1    1    2    0  504  0.20462771605E+03 -0.27906931045E+03 -0.24238122503E+03  0.45654117061E+03  0.17300000000E+03 0.  1.
        6    1    1    2  502    0 -0.29166739403E+03  0.84212706398E+02 -0.58113050140E+00  0.34941520627E+03  0.17300000000E+03 0.  1.
       -6    1    1    2    0  503 -0.87580873336E+01  0.11975599538E+03  0.20852619897E+03  0.29636190407E+03  0.17300000000E+03 0. -1.
</event>
<event>
 6   0  0.4500850E-05  0.6278983E+03  0.7546771E-02  0.9849159E-01
       -2   -1    0    0    0  501  0.00000000000E+00  0.00000000000E+00  0.17995372611E+03  0.17995372611E+03  0.00000000000E+00 0. -1.
        2   -1    0    0  502    0  0.00000000000E+00  0.00000000000E+00 -0.43963045518E+04  0.43963045518E+04  0.00000000000E+00 0.  1.
        6    1    1    2  502    0 -0.31175160069E+03 -0.17590657695E+03 -0.66606522066E+03  0.77569585697E+03  0.17300000000E+03 0.  1.
       -6    1    1    2    0  503 -0.11696302678E+01 -0.36705145056E+02 -0.25331769467E+04  0.25393430408E+04  0.17300000000E+03 0.  1.
        6    1    1    2  503    0  0.24679969230E+03  0.22022152721E+03 -0.20026216353E+03  0.42360540992E+03  0.17300000000E+03 0. -1.
       -6    1    1    2    0  501  0.66121538653E+02 -0.76098052020E+01 -0.81684649488E+03  0.83761397028E+03  0.17300000000E+03 0. -1.
</event>
<event>
 6   0  0.4500850E-05  0.5540846E+03  0.7546771E-02  0.1021648E+00
       21   -1    0    0  501  503  0.00000000000E+00  0.00000000000E+00  0.56301876772E+03  0.56301876772E+03  0.00000000000E+00 0. -1.
       21   -1    0    0  502  504  0.00000000000E+00  0.00000000000E+00 -0.90706486465E+03  0.90706486465E+03  0.00000000000E+00 0.  1.
        6    1    1    2  501    0 -0.15128621759E+03 -0.34841480811E+03 -0.19016318879E+02  0.41781696774E+03  0.17300000000E+03 0.  1.
       -6    1    1    2    0  503  0.29178955883E+02  0.44717356936E+03 -0.33421976466E+02  0.48152013573E+03  0.17300000000E+03 0. -1.
        6    1    1    2  502    0  0.19414769093E+03  0.28114257319E+02 -0.18637887197E+03  0.32116945882E+03  0.17300000000E+03 0. -1.
       -6    1    1    2    0  504 -0.72040429229E+02 -0.12687301856E+03 -0.10522892961E+03  0.24957707008E+03  0.17300000000E+03 0.  1.
</event>
<event>
 6   0  0.4500850E-05  0.4476338E+03  0.7546771E-02  0.1055437E+00
       21   -1    0    0  502  503  0.00000000000E+00  0.00000000000E+00  0.31546612219E+03  0.31546612219E+03  0.00000000000E+00 0.  1.
       21   -1    0    0  501  504  0.00000000000E+00  0.00000000000E+00 -0.83817905917E+03  0.83817905917E+03  0.00000000000E+00 0.  1.
        6    1    1    2  501    0 -0.18641729708E+03 -0.92441842443E+02 -0.12526885523E+03  0.29819153069E+03  0.17300000000E+03 0. -1.
       -6    1    1    2    0  503  0.74739611505E+02  0.44347277929E+02 -0.88008026490E+02  0.21266664834E+03  0.17300000000E+03 0.  1.
        6    1    1    2  502    0  0.16029577207E+03  0.14591117380E+03 -0.67216353835E+01  0.27741482579E+03  0.17300000000E+03 0.  1.
       -6    1    1    2    0  504 -0.48618086500E+02 -0.97816609288E+02 -0.30271441988E+03  0.36537217654E+03  0.17300000000E+03 0.  1.
</event>
<event>
 6   0  0.4500850E-05  0.1982420E+03  0.7546771E-02  0.1154817E+00
       21   -1    0    0  501  503  0.00000000000E+00  0.00000000000E+00  0.40183041450E+03  0.40183041450E+03  0.00000000000E+00 0. -1.
       21   -1    0    0  502  504  0.00000000000E+00  0.00000000000E+00 -0.53471137727E+03  0.53471137727E+03  0.00000000000E+00 0.  1.
        6    1    1    2  501    0  0.10907164605E+02  0.10186275306E+03  0.11220148454E+03  0.23024586823E+03  0.17300000000E+03 0. -1.
       -6    1    1    2    0  503 -0.55114530412E+02 -0.14880028690E+02 -0.41328042224E+02  0.18680480130E+03  0.17300000000E+03 0. -1.
        6    1    1    2  502    0  0.61211512947E+02  0.13190776432E+01 -0.25846202110E+03  0.31698612846E+03  0.17300000000E+03 0.  1.
       -6    1    1    2    0  504 -0.17004147140E+02 -0.88301802018E+02  0.54707616015E+02  0.20250499379E+03  0.17300000000E+03 0.  1.
</event>
<event>
 6   0  0.4500850E-05  0.4453615E+03  0.7546771E-02  0.1059129E+00
       21   -1    0    0  501  503  0.00000000000E+00  0.00000000000E+00  0.13275835599E+04  0.13275835599E+04  0.00000000000E+00 0.  1.
       21   -1    0    0  502  504  0.00000000000E+00  0.00000000000E+00 -0.46383793619E+03  0.46383793619E+03  0.00000000000E+00 0. -1.
        6    1    1    2  501    0  0.10063667937E+03  0.22375499032E+03  0.44219402550E+03  0.53447038562E+03  0.17300000000E+03 0. -1.
       -6    1    1    2    0  504 -0.15446180003E+01  0.71644559231E+02  0.42154620090E+03  0.46126513873E+03  0.17300000000E+03 0.  1.
        6    1    1    2  502    0  0.10600993639E+03  0.13673383145E+03  0.12082020369E+03  0.27287500599E+03  0.17300000000E+03 0.  1.
       -6    1    1    2    0  503 -0.20510199776E+03 -0.43213338100E+03 -0.12081480638E+03  0.52281096574E+03  0.17300000000E+03 0. -1.
</event>
<event>
 6   0  0.4500850E-05  0.7340299E+03  0.7546771E-02  0.9867229E-01
       21   -1    0    0  502  503  0.00000000000E+00  0.00000000000E+00  0.75361607805E+03  0.75361607805E+03  0.00000000000E+00 0. -1.
       21   -1    0    0  501  504  0.00000000000E+00  0.00000000000E+00 -0.16355188574E+04  0.16355188574E+04  0.00000000000E+00 0. -1.
        6    1    1    2  501    0  0.21183411348E+03  0.31998790152E+02  0.14251798599E+03  0.31006126900E+03  0.17300000000E+03 0.  1.
       -6    1    1    2    0  504 -0.16974284101E+03 -0.23765540817E+03 -0.37606368673E+02  0.34152007858E+03  0.17300000000E+03 0.  1.
        6    1    1    2  502    0 -0.62028601571E+03  0.46350262324E+02 -0.89959664681E+03  0.11072968053E+04  0.17300000000E+03 0. -1.
       -6    1    1    2    0  503  0.57819474324E+03  0.15930635569E+03 -0.87217749874E+02  0.63025678257E+03  0.17300000000E+03 0. -1.
</event>
<event>
 6   0  0.4500850E-05  0.5283283E+03  0.7546771E-02  0.1028435E+00
       21   -1    0    0  502  503  0.00000000000E+00  0.00000000000E+00  0.67630084240E+03  0.67630084240E+03  0.00000000000E+00 0. -1.
       21   -1    0    0  503  504  0.00000000000E+00  0.00000000000E+00 -0.82004516041E+03  0.82004516041E+03  0.00000000000E+00 0. -1.
        6    1    1    2  501    0  0.24480941864E+03  0.83607863906E+01 -0.46444886387E+03  0.55285016176E+03  0.17300000000E+03 0. -1.
       -6    1    1    2    0  501 -0.28166913977E+03  0.95607186411E+02  0.20498894198E+03  0.40053427410E+03  0.17300000000E+03 0. -1.
        6    1    1    2  502    0 -0.12762992394E+03  0.26859468308E+02  0.15709724152E+03  0.26761795869E+03  0.17300000000E+03 0. -1.
       -6    1    1    2    0  504  0.16448964507E+03 -0.13082744111E+03 -0.41381637637E+02  0.27534360827E+03  0.17300000000E+03 0.  1.
</event>
<event>
 6   0  0.4500850E-05  0.2009219E+03  0.7546771E-02  0.1154171E+00
       21   -1    0    0  501  503  0.00000000000E+00  0.00000000000E+00  0.72372106077E+03  0.72372106077E+03  0.00000000000E+00 0. -1.
       21   -1    0    0  502  504  0.00000000000E+00  0.00000000000E+00 -0.68987327332E+03  0.68987327332E+03  0.00000000000E+00 0. -1.
        6    1    1    2  501    0  0.86426673167E+02 -0.96385955067E+02  0.29467246932E+03  0.36540482529E+03  0.17300000000E+03 0. -1.
       -6    1    1    2    0  503  0.64473218956E+01  0.11606039790E+03 -0.84552493958E+02  0.22492156000E+03  0.17300000000E+03 0. -1.
        6    1    1    2  502    0 -0.89064125680E+02 -0.18342435800E+02  0.27647339987E+03  0.33857850533E+03  0.17300000000E+03 0. -1.
       -6    1    1    2    0  504 -0.38098693823E+01 -0.13320070320E+01 -0.45274558778E+03  0.48468944346E+03  0.17300000000E+03 0. -1.
</event>
<event>
 6   0  0.4500850E-05  0.5307316E+03  0.7546771E-02  0.1006067E+00
       21   -1    0    0  504  503  0.00000000000E+00  0.00000000000E+00  0.73465963768E+03  0.73465963768E+03  0.00000000000E+00 0.  1.
       21   -1    0    0  502  504  0.00000000000E+00  0.00000000000E+00 -0.90728123427E+03  0.90728123427E+03  0.00000000000E+00 0. -1.
        6    1    1    2  501    0 -0.16709291051E+03 -0.13217996811E+02  0.31657469704E+03  0.39779805805E+03  0.17300000000E+03 0.  1.
       -6    1    1    2    0  501  0.26823514877E+03  0.12239096039E+03 -0.48141110673E+03  0.59043652995E+03  0.17300000000E+03 0. -1.
        6    1    1    2  502    0  0.56576529508E+02  0.46556434411E+02 -0.22881318113E+03  0.29606228591E+03  0.17300000000E+03 0. -1.
       -6    1    1    2    0  503 -0.15771876778E+03 -0.15572939799E+03  0.22102799422E+03  0.35764399804E+03  0.17300000000E+03 0.  1.
</event>
<event>
 6   0  0.4500850E-05  0.4412070E+03  0.7546771E-02  0.1031639E+00
       21   -1    0    0  502  503  0.00000000000E+00  0.00000000000E+00  0.11903264362E+03  0.11903264362E+03  0.00000000000E+00 0.  1.
       21   -1    0    0  501  504  0.00000000000E+00  0.00000000000E+00 -0.16405048856E+04  0.16405048856E+04  0.00000000000E+00 0. -1.
        6    1    1    2  501    0  0.10669870540E+03  0.93158374894E+02 -0.50563708401E+03  0.55286612962E+03  0.17300000000E+03 0. -1.
       -6    1    1    2    0  504 -0.70790486532E+02 -0.16394744400E+02 -0.24702085281E+03  0.31020699920E+03  0.17300000000E+03 0. -1.
        6    1    1    2  502    0 -0.10443108662E+03 -0.15298914049E+03 -0.35285439310E+03  0.43444994153E+03  0.17300000000E+03 0.  1.
       -6    1    1    2    0  503  0.68522867749E+02  0.76225510000E+02 -0.41595991200E+03  0.46201445883E+03  0.17300000000E+03 0. -1.
</event>
<event>
 6   0  0.4500850E-05  0.3553681E+03  0.7546771E-02  0.1066036E+00
       21   -1    0    0  501  503  0.00000000000E+00  0.00000000000E+00  0.54353914967E+03  0.54353914967E+03  0.00000000000E+00 0. -1.
       21   -1    0    0  502  504  0.00000000000E+00  0.00000000000E+00 -0.11787538606E+04  0.11787538606E+04  0.00000000000E+00 0. -1.
        6    1    1    2  501    0 -0.28884769016E+03  0.84776712865E+02 -0.53383345442E+02  0.35128173982E+03  0.17300000000E+03 0.  1.
       -6    1    1    2    0  504  0.23699737816E+02  0.24896012807E+03  0.17343045798E+03  0.35007134515E+03  0.17300000000E+03 0. -1.
        6    1    1    2  502    0 -0.42115716631E+02 -0.26690168380E+03 -0.28327916577E+03  0.42800271981E+03  0.17300000000E+03 0. -1.
       -6    1    1    2    0  503  0.30726366898E+03 -0.66835157135E+02 -0.47198265774E+03  0.59293720554E+03  0.17300000000E+03 0.  1.
</event>
<event>
 6   0  0.4500850E-05  0.2242139E+03  0.7546771E-02  0.1131409E+00
       21   -1    0    0  501  503  0.00000000000E+00  0.00000000000E+00  0.58896267063E+03  0.58896267063E+03  0.00000000000E+00 0.  1.
       21   -1    0    0  503  504  0.00000000000E+00  0.00000000000E+00 -0.66949553435E+03  0.66949553435E+03  0.00000000000E+00 0.  1.
        6    1    1    2  501    0  0.85404414622E+02  0.30765452615E+02  0.23286743719E+03  0.30396820625E+03  0.17300000000E+03 0.  1.
       -6    1    1    2    0  502  0.26617422043E+02  0.12202082281E+03  0.11228355889E+03  0.24111027757E+03  0.17300000000E+03 0.  1.
        6    1    1    2  502    0 -0.92421750399E+02 -0.24651030853E+03 -0.96667516256E+02  0.32951892336E+03  0.17300000000E+03 0.  1.
       -6    1    1    2    0  504 -0.19600086266E+02  0.93724033104E+02 -0.32901634353E+03  0.38386079778E+03  0.17300000000E+03 0. -1.
</event>
<event>
 6   0  0.4500850E-05  0.2172205E+03  0.7546771E-02  0.1141369E+00
       21   -1    0    0  502  503  0.00000000000E+00  0.00000000000E+00  0.22562997760E+03  0.22562997760E+03  0.00000000000E+00 0. -1.
       21   -1    0    0  501  504  0.00000000000E+00  0.00000000000E+00 -0.11211141813E+04  0.11211141813E+04  0.00000000000E+00 0.  1.
        6    1    1    2  501    0 -0.22080770910E+02  0.77006594567E+02 -0.73209071943E+02  0.20422082231E+03  0.17300000000E+03 0. -1.
       -6    1    1    2    0  503 -0.10889257917E+03 -0.92485357888E+01 -0.57911470380E+01  0.20470873600E+03  0.17300000000E+03 0. -1.
        6    1    1    2  502    0  0.11969030561E+03  0.85048212072E+02 -0.34816306212E+03  0.41557849494E+03  0.17300000000E+03 0. -1.
       -6    1    1    2    0  504  0.11283044462E+02 -0.15280627085E+03 -0.46832092261E+03  0.52223610567E+03  0.17300000000E+03 0.  1.
</event>
<event>
 6   0  0.4500850E-05  0.1968677E+03  0.7546771E-02  0.1155207E+00
       21   -1    0    0  504  503  0.00000000000E+00  0.00000000000E+00  0.97800267666E+03  0.97800267666E+03  0.00000000000E+00 0.  1.
       21   -1    0    0  502  504  0.00000000000E+00  0.00000000000E+00 -0.36983557900E+03  0.36983557900E+03  0.00000000000E+00 0.  1.
        6    1    1    2  501    0  0.11211234317E+03  0.10830741698E+03 -0.98423775924E+02  0.25281596811E+03  0.17300000000E+03 0.  1.
       -6    1    1    2    0  503 -0.12277283349E+03 -0.46091618467E+02  0.43776621137E+03  0.48863673803E+03  0.17300000000E+03 0.  1.
        6    1    1    2  502    0 -0.39405509778E+02 -0.81806005023E+02 -0.81729922012E+02  0.21178714978E+03  0.17300000000E+03 0.  1.
       -6    1    1    2    0  501  0.50066000102E+02  0.19590206505E+02  0.35055458422E+03  0.39459839974E+03  0.17300000000E+03 0.  1.
</event>
<event>
 6   0  0.4500850E-05  0.3802649E+03  0.7546771E-02  0.1068818E+00
       21   -1    0    0  504  503  0.00000000000E+00  0.00000000000E+00  0.32364856123E+03  0.32364856123E+03  0.00000000000E+00 0. -1.
       21   -1    0    0  501  504  0.00000000000E+00  0.00000000000E+00 -0.24102943544E+04  0.24102943544E+04  0.00000000000E+00 0.  1.
        6    1    1    2  501    0 -0.32924934098E+02  0.14770640197E+03 -0.10969148359E+04  0.11207374312E+04  0.17300000000E+03 0.  1.
       -6    1    1    2    0  502  0.23763164675E+03 -0.26235281468E+03 -0.58204373545E+03  0.70285255131E+03  0.17300000000E+03 0. -1.
        6    1    1    2  502    0 -0.28512691297E+02  0.39453602514E+03 -0.28556750472E+03  0.51763833750E+03  0.17300000000E+03 0.  1.
       -6    1    1    2    0  503 -0.17619402135E+03 -0.27988961243E+03 -0.12211971709E+03  0.39271459562E+03  0.17300000000E+03 0. -1.
</event>
<event>
 6   0  0.4500850E-05  0.3119402E+03  0.7546771E-02  0.1101606E+00
       21   -1    0    0  504  503  0.00000000000E+00  0.00000000000E+00  0.95560242607E+03  0.95560242607E+03  0.00000000000E+00 0.  1.
       21   -1    0    0  502  504  0.00000000000E+00  0.00000000000E+00 -0.29004818779E+03  0.29004818779E+03  0.00000000000E+00 0.  1.
        6    1    1    2  501    0 -0.29488077326E+00 -0.14526360654E+02  0.22585891507E+03  0.28487251820E+03  0.17300000000E+03 0.  1.
       -6    1    1    2    0  503 -0.86870339525E+02 -0.43209276122E+02  0.20640617522E+03  0.28626212917E+03  0.17300000000E+03 0.  1.
        6    1    1    2  502    0 -0.12385935373E+03  0.22695419841E+03  0.13079431576E+03  0.33746925892E+03  0.17300000000E+03 0.  1.
       -6    1    1    2    0  501  0.21102457402E+03 -0.16921856163E+03  0.10249483223E+03  0.33704670756E+03  0.17300000000E+03 0.  1.
</event>
<event>
 6   0  0.4500850E-05  0.5037879E+03  0.7546771E-02  0.1038617E+00
       21   -1    0    0  501  503  0.00000000000E+00  0.00000000000E+00  0.47717315602E+03  0.47717315602E+03  0.00000000000E+00 0. -1.
       21   -1    0    0  502  504  0.00000000000E+00  0.00000000000E+00 -0.11609737564E+04  0.11609737564E+04  0.00000000000E+00 0.  1.
        6    1    1    2  501    0  0.15532153218E+01 -0.18140220784E+03 -0.42836290650E+03  0.49631940638E+03  0.17300000000E+03 0.  1.
       -6    1    1    2    0  504  0.86593117779E+02  0.74828611084E+02 -0.10817414826E+03  0.23394088021E+03  0.17300000000E+03 0.  1.
        6    1    1    2  502    0 -0.15636486261E+03  0.37734228586E+03  0.14656245290E+03  0.46716883839E+03  0.17300000000E+03 0. -1.
       -6    1    1    2    0  503  0.68218529507E+02 -0.27076868911E+03 -0.29382599855E+03  0.44071778747E+03  0.17300000000E+03 0.  1.
</event>
<event>
 6   0  0.4500850E-05  0.1941676E+03  0.7546771E-02  0.1154845E+00
       21   -1    0    0  504  503  0.00000000000E+00  0.00000000000E+00  0.70740950875E+03  0.70740950875E+03  0.00000000000E+00 0. -1.
       21   -1    0    0  501  504  0.00000000000E+00  0.00000000000E+00 -0.41934419018E+03  0.41934419018E+03  0.00000000000E+00 0. -1.
        6    1    1    2  501    0  0.11492259457E+03  0.84331609604E+02 -0.21326564878E+03  0.30940307056E+03  0.17300000000E+03 0. -1.
       -6    1    1    2    0  503 -0.42317494374E+02 -0.56124999878E+02  0.32757769096E+03  0.37706356169E+03  0.17300000000E+03 0.  1.
        6    1    1    2  502    0 -0.11292957526E+03 -0.47168313171E+02  0.36569097526E+02  0.21504473402E+03  0.17300000000E+03 0. -1.
       -6    1    1    2    0  502  0.40324475066E+02  0.18961703445E+02  0.13718417887E+03  0.22524233265E+03  0.17300000000E+03 0.  1.
</event>
<event>
 6   0  0.4500850E-05  0.4871428E+03  0.7546771E-02  0.1052235E+00
       21   -1    0    0  502  503  0.00000000000E+00  0.00000000000E+00  0.24325191998E+03  0.24325191998E+03  0.00000000000E+00 0. -1.
       21   -1    0    0  501  504  0.00000000000E+00  0.00000000000E+00 -0.18727227034E+04  0.18727227034E+04  0.00000000000E+00 0.  1.
        6    1    1    2  501    0  0.17524530184E+03  0.25258786365E+02 -0.88356165341E+03  0.91758330274E+03  0.17300000000E+03 0.  1.
       -6    1    1    2    0  504 -0.61269266352E+01 -0.15680989899E+02 -0.10939437569E+01  0.17382068170E+03  0.17300000000E+03 0.  1.
        6    1    1    2  502    0 -0.27452166606E+03 -0.12987584625E+03 -0.14183545464E+03  0.37719514415E+03  0.17300000000E+03 0. -1.
       -6    1    1    2    0  503  0.10540329086E+03  0.12029804978E+03 -0.60297973163E+03  0.64737549480E+03  0.17300000000E+03 0. -1.
</event>
<event>
 6   0  0.4500850E-05  0.2669020E+03  0.7546771E-02  0.1109357E+00
       21   -1    0    0  501  503  0.00000000000E+00  0.00000000000E+00  0.89400041629E+03  0.89400041629E+03  0.00000000000E+00 0. -1.
       21   -1    0    0  502  504  0.00000000000E+00  0.00000000000E+00 -0.82766751268E+03  0.82766751268E+03  0.00000000000E+00 0.  1.
        6    1    1    2  501    0  0.57781063564E+02 -0.51069889458E+02 -0.28881261695E+03  0.34538169122E+03  0.17300000000E+03 0.  1.
       -6    1    1    2    0  504 -0.16497424203E+03  0.35464157623E+03  0.10021153681E+03  0.43927041812E+03  0.17300000000E+03 0.  1.
        6    1    1    2  502    0  0.23368957177E+02 -0.19557015594E+03 -0.26469421712E+03  0.37253969269E+03  0.17300000000E+03 0.  1.
       -6    1    1    2    0  503  0.83824221287E+02 -0.10800153083E+03  0.51962820088E+03  0.56447612694E+03  0.17300000000E+03 0. -1.
</event>
<event>
 6   0  0.4500850E-05  0.3894848E+03  0.7546771E-02  0.1065636E+00
       21   -1    0    0  501  503  0.00000000000E+00  0.00000000000E+00  0.21902853657E+03  0.21902853657E+03  0.00000000000E+00 0.  1.
       21   -1    0    0  502  504  0.00000000000E+00  0.00000000000E+00 -0.15406809412E+04  0.15406809412E+04  0.00000000000E+00 0.  1.
        6    1    1    2  501    0 -0.23357329694E+03 -0.11550519574E+03 -0.28564281250E+03  0.42357850703E+03  0.17300000000E+03 0. -1.
       -6    1    1    2    0  504  0.31393049579E+02  0.80258757355E+02 -0.68466423482E+03  0.71142189040E+03  0.17300000000E+03 0.  1.
        6    1    1    2  502    0  0.24506082738E+03  0.76335274072E+02 -0.12530671963E+03  0.33393510922E+03  0.17300000000E+03 0.  1.
       -6    1    1    2    0  503 -0.42880580024E+02 -0.41088835691E+02 -0.22603863770E+03  0.29077397114E+03  0.17300000000E+03 0.  1.
</event>
<event>
 6   0  0.4500850E-05  0.2779157E+03  0.7546771E-02  0.1114090E+00
       21   -1    0    0  502  503  0.00000000000E+00  0.00000000000E+00  0.44305072859E+03  0.44305072859E+03  0.00000000000E+00 0. -1.
       21   -1    0    0  501  504  0.00000000000E+00  0.00000000000E+00 -0.22914202031E+04  0.22914202031E+04  0.00000000000E+00 0. -1.
        6    1    1    2  501    0 -0.33045056429E+02  0.28392195417E+02 -0.53141947381E+03  0.56056556232E+03  0.17300000000E+03 0.  1.
       -6    1    1    2    0  504  0.73539215914E+02  0.11736349861E+03 -0.66201158759E+03  0.69811929438E+03  0.17300000000E+03 0. -1.
        6    1    1    2  502    0 -0.11895115595E+03 -0.18895842155E+03  0.35135186224E+03  0.45081237082E+03  0.17300000000E+03 0. -1.
       -6    1    1    2    0  503  0.78456996469E+02  0.43202727522E+02 -0.10062902754E+04  0.10249737042E+04  0.17300000000E+03 0. -1.
</event>
<event>
 6   0  0.4500850E-05  0.2089869E+03  0.7546771E-02  0.1143845E+00
       21   -1    0    0  501  503  0.00000000000E+00  0.00000000000E+00  0.26944954682E+04  0.26944954682E+04  0.00000000000E+00 0. -1.
       21   -1    0    0  502  504  0.00000000000E+00  0.00000000000E+00 -0.50083611469E+03  0.50083611469E+03  0.00000000000E+00 0. -1.
        6    1    1    2  501    0 -0.18131708458E+02 -0.86113509234E+02  0.10842957687E+04  0.11015310297E+04  0.17300000000E+03 0.  1.
       -6    1    1    2    0  504 -0.29842918866E+02  0.21706426503E+03  0.14990405085E+04  0.15248143956E+04  0.17300000000E+03 0. -1.
        6    1    1    2  502    0 -0.62872608473E+02 -0.38209565310E+02 -0.15590130353E+03  0.24422766473E+03  0.17300000000E+03 0. -1.
       -6    1    1    2    0  503  0.11084723580E+03 -0.92741190486E+02 -0.23377562017E+03  0.32475849285E+03  0.17300000000E+03 0.  1.
</event>
<event>
 6   0  0.4500850E-05  0.2393193E+03  0.7546771E-02  0.1121666E+00
       21   -1    0    0  504  503  0.00000000000E+00  0.00000000000E+00  0.87479376893E+03  0.87479376893E+03  0.00000000000E+00 0.  1.
       21   -1    0    0  501  504  0.00000000000E+00  0.00000000000E+00 -0.49068240441E+03  0.49068240441E+03  0.00000000000E+00 0. -1.
        6    1    1    2  501    0 -0.42992801833E+02 -0.22282916893E+03  0.16230038615E+02  0.28582098189E+03  0.17300000000E+03 0. -1.
       -6    1    1    2    0  503  0.71133784762E+02  0.36436604503E+02  0.43906862107E+03  0.47864171933E+03  0.17300000000E+03 0.  1.
        6    1    1    2  502    0 -0.10684570738E+03  0.23119019733E+03  0.11743301946E+03  0.32952151156E+03  0.17300000000E+03 0.  1.
       -6    1    1    2    0  502  0.78704724446E+02 -0.44797632903E+02 -0.18862031462E+03  0.27149196056E+03  0.17300000000E+03 0. -1.
</event>
<event>
 6   0  0.4500850E-05  0.2382379E+03  0.7546771E-02  0.1127778E+00
       21   -1    0    0  504  503  0.00000000000E+00  0.00000000000E+00  0.19149295677E+04  0.19149295677E+04  0.00000000000E+00 0. -1.
       21   -1    0    0  501  504  0.00000000000E+00  0.00000000000E+00 -0.18251077605E+04  0.18251077605E+04  0.00000000000E+00 0. -1.
        6    1    1    2  501    0  0.24002476051E+01  0.70804210103E+02 -0.96114584058E+03  0.97915745629E+03  0.17300000000E+03 0. -1.
       -6    1    1    2    0  503 -0.12615844581E+03 -0.56838475433E+02  0.13905037415E+04  0.14080398506E+04  0.17300000000E+03 0. -1.
        6    1    1    2  502    0  0.27019982758E+03  0.16071063323E+03  0.41336653826E+03  0.54739085616E+03  0.17300000000E+03 0. -1.
       -6    1    1    2    0  502 -0.14644162937E+03 -0.17467636790E+03 -0.75290263203E+03  0.80544916514E+03  0.17300000000E+03 0. -1.
</event>
<event>
 6   0  0.4500850E-05  0.4273357E+03  0.7546771E-02  0.1064026E+00
       21   -1    0    0  502  503  0.00000000000E+00  0.00000000000E+00  0.68746168036E+03  0.68746168036E+03  0.00000000000E+00 0. -1.
       21   -1    0    0  503  504  0.00000000000E+00  0.00000000000E+00 -0.11135670194E+04  0.11135670194E+04  0.00000000000E+00 0.  1.
        6    1    1    2  501    0 -0.45463297185E+03  0.83360968630E+02 -0.61540840289E+03  0.78885784051E+03  0.17300000000E+03 0.  1.
       -6    1    1    2    0  501  0.64498946761E+02  0.98412251620E+01  0.33655700300E+03  0.38400075536E+03  0.17300000000E+03 0. -1.
        6    1    1    2  502    0  0.11102145796E+03  0.48202121756E+02  0.53941264375E+02  0.21791711423E+03  0.17300000000E+03 0. -1.
       -6    1    1    2    0  504  0.27911256713E+03 -0.14140431555E+03 -0.20119520349E+03  0.41025298962E+03  0.17300000000E+03 0. -1.
</event>
<event>
 6   0  0.4500850E-05  0.4293393E+03  0.7546771E-02  0.1059829E+00
       21   -1    0    0  502  503  0.00000000000E+00  0.00000000000E+00  0.18034694842E+04  0.18034694842E+04  0.00000000000E+00 0.  1.
       21   -1    0    0  501  504  0.00000000000E+00  0.00000000000E+00 -0.58708772247E+03  0.58708772247E+03  0.00000000000E+00 0.  1.
        6    1    1    2  501    0  0.33372978865E+03 -0.42361038563E+02  0.48970493005E+03  0.61879717835E+03  0.17300000000E+03 0. -1.
       -6    1    1    2    0  504  0.50131295995E+02 -0.36765285730E+02 -0.59819871932E+02  0.19331903722E+03  0.17300000000E+03 0. -1.
        6    1    1    2  502    0  0.17364451634E+03  0.38845649836E+03 -0.10272936057E+03  0.47067312511E+03  0.17300000000E+03 0.  1.
       -6    1    1    2    0  503 -0.55750560099E+03 -0.30933017407E+03  0.88922606422E+03  0.11077678660E+04  0.17300000000E+03 0.  1.
</event>
<event>
 6   0  0.4500850E-05  0.2674981E+03  0.7546771E-02  0.1105812E+00
       21   -1    0    0  502  503  0.00000000000E+00  0.00000000000E+00  0.82799566996E+03  0.82799566996E+03  0.00000000000E+00 0. -1.
       21   -1    0    0  501  504  0.00000000000E+00  0.00000000000E+00 -0.56185986083E+03  0.56185986083E+03  0.00000000000E+00 0. -1.
        6    1    1    2  501    0  0.17831804206E+03 -0.55329846030E+01 -0.29045449185E+03  0.38225743927E+03  0.17300000000E+03 0.  1.
       -6    1    1    2    0  504  0.33375436019E+02 -0.21117028228E+03  0.24493632472E+03  0.36827925684E+03  0.17300000000E+03 0. -1.
        6    1    1    2  502    0 -0.13311160160E+03 -0.44369646222E+02  0.19484949642E+03  0.29594372816E+03  0.17300000000E+03 0. -1.
       -6    1    1    2    0  503 -0.78581876476E+02  0.26107291311E+03  0.11680447984E+03  0.34337510652E+03  0.17300000000E+03 0. -1.
</event>
<event>
 6   0  0.4500850E-05  0.2955871E+03  0.7546771E-02  0.1089161E+00
       21   -1    0    0  502  503  0.00000000000E+00  0.00000000000E+00  0.37888519063E+03  0.37888519063E+03  0.00000000000E+00 0.  1.
       21   -1    0    0  501  504  0.00000000000E+00  0.00000000000E+00 -0.14394841911E+04  0.14394841911E+04  0.00000000000E+00 0.  1.
        6    1    1    2  501    0 -0.10784937840E+03 -0.12972879958E+03 -0.55044425027E+02  0.24783046340E+03  0.17300000000E+03 0.  1.
       -6    1    1    2    0  504  0.29120207938E+03 -0.24126521127E+03 -0.65259307254E+03  0.77383090629E+03  0.17300000000E+03 0.  1.
        6    1    1    2  502    0  0.33053075644E+02  0.13124691655E+03 -0.36960035165E+03  0.42994380895E+03  0.17300000000E+03 0. -1.
       -6    1    1    2    0  503 -0.21640577662E+03  0.23974709430E+03  0.16638848745E+02  0.36676420309E+03  0.17300000000E+03 0.  1.
</event>
<event>
 6   0  0.4500850E-05  0.6686485E+03  0.7546771E-02  0.9839839E-01
        2   -1    0    0  503    0  0.00000000000E+00  0.00000000000E+00  0.13349297660E+04  0.13349297660E+04  0.00000000000E+00 0.  1.
       -2   -1    0    0    0  501  0.00000000000E+00  0.00000000000E+00 -0.45999811040E+03  0.45999811040E+03  0.00000000000E+00 0. -1.
        6    1    1    2  502    0  0.63358021117E+02  0.16370896909E+03 -0.60415820990E+02  0.25375960440E+03  0.17300000000E+03 0. -1.
       -6    1    1    2    0  501 -0.26275830051E+03 -0.27944114553E+03 -0.45707296198E+02  0.42325811891E+03  0.17300000000E+03 0. -1.
        6    1    1    2  503    0  0.12063029858E+03 -0.10420551776E+03  0.54771180924E+03  0.59609368798E+03  0.17300000000E+03 0.  1.
       -6    1    1    2    0  502  0.78769980816E+02  0.21993769419E+03  0.43334296360E+03  0.52181646515E+03  0.17300000000E+03 0.  1.
</event>
<event>
 6   0  0.4500850E-05  0.8883773E+03  0.7546771E-02  0.9567806E-01
       21   -1    0    0  502  503  0.00000000000E+00  0.00000000000E+00  0.99777072961E+03  0.99777072961E+03  0.00000000000E+00 0. -1.
       21   -1    0    0  503  504  0.00000000000E+00  0.00000000000E+00 -0.13165396534E+04  0.13165396534E+04  0.00000000000E+00 0. -1.
        6    1    1    2  501    0 -0.37231144197E+03 -0.20068120821E+03 -0.46498456243E+00  0.45696605275E+03  0.17300000000E+03 0.  1.
       -6    1    1    2    0  504 -0.29316587723E+03 -0.37281047606E+03 -0.43207314956E+03  0.66449235451E+03  0.17300000000E+03 0. -1.
        6    1    1    2  502    0  0.56404732968E+03  0.41311850682E+02  0.18502809928E+03  0.61969384106E+03  0.17300000000E+03 0. -1.
       -6    1    1    2    0  501  0.10142998952E+03  0.53217983359E+03 -0.71258888901E+02  0.57315813464E+03  0.17300000000E+03 0.  1.
</event>
<event>
 6   0  0.4500850E-05  0.1915738E+03  0.7546771E-02  0.1158092E+00
       21   -1    0    0  502  503  0.00000000000E+00  0.00000000000E+00  0.88432507764E+03  0.88432507764E+03  0.00000000000E+00 0.  1.
       21   -1    0    0  501  504  0.00000000000E+00  0.00000000000E+00 -0.79582291925E+03  0.79582291925E+03  0.00000000000E+00 0. -1.
        6    1    1    2  501    0 -0.96798399809E+02 -0.94795826295E+02 -0.60634232350E+03  0.64493115303E+03  0.17300000000E+03 0. -1.
       -6    1    1    2    0  503  0.67072281871E+02  0.11200738931E+02 -0.34333847590E+02  0.18902899417E+03  0.17300000000E+03 0.  1.
        6    1    1    2  502    0 -0.26186341748E+02 -0.42802280763E+02  0.18276318372E+03  0.25661087478E+03  0.17300000000E+03 0. -1.
       -6    1    1    2    0  504  0.55912459686E+02  0.12639736813E+03  0.54641514576E+03  0.58957697490E+03  0.17300000000E+03 0.  1.
</event>
<event>
 6   0  0.4500850E-05  0.3927894E+03  0.7546771E-02  0.1060962E+00
       21   -1    0    0  501  503  0.00000000000E+00  0.00000000000E+00  0.12198676272E+04  0.12198676272E+04  0.00000000000E+00 0.  1.
       21   -1    0    0  502  504  0.00000000000E+00  0.00000000000E+00 -0.79313840354E+03  0.79313840354E+03  0.00000000000E+00 0. -1.
        6    1    1    2  501    0 -0.13140159918E+02 -0.36056870224E+02 -0.15034795482E+02  0.17784208379E+03  0.17300000000E+03 0.  1.
       -6    1    1    2    0  503 -0.43828588824E+03  0.27612560602E+03 -0.28902185487E+03  0.61790169342E+03  0.17300000000E+03 0. -1.
        6    1    1    2  502    0 -0.19851661816E+03 -0.41888991442E+02  0.14443123133E+03  0.30323739195E+03  0.17300000000E+03 0.  1.
       -6    1    1    2    0  504  0.64994266632E+03 -0.19817974436E+03  0.58635464267E+03  0.91402486156E+03  0.17300000000E+03 0.  1.
</event>
<event>
 6   0  0.4500850E-05  0.2274388E+03  0.7546771E-02  0.1134440E+00
       21   -1    0    0  501  503  0.00000000000E+00  0.00000000000E+00  0.42140394088E+03  0.42140394088E+03  0.00000000000E+00 0. -1.
       21   -1    0    0  502  504  0.00000000000E+00  0.00000000000E+00 -0.13942444217E+04  0.13942444217E+04  0.00000000000E+00 0.  1.
        6    1    1    2  501    0  0.10617803372E+01  0.21839222791E+03 -0.66048867244E+03  0.71684766792E+03  0.17300000000E+03 0.  1.
       -6    1    1    2    0  504 -0.11213570986E+03 -0.74103132288E+02 -0.55915836773E+03  0.60054373017E+03  0.17300000000E+03 0. -1.
        6    1    1    2  502    0  0.51819704295E+02 -0.53925377172E+02  0.22440994498E+03  0.29305639639E+03  0.17300000000E+03 0. -1.
       -6    1    1    2    0  503  0.59254225228E+02 -0.90363718446E+02  0.22396614350E+02  0.20520056811E+03  0.17300000000E+03 0.  1.
</event>
<event>
 6   0  0.4500850E-05  0.3826939E+03  0.7546771E-02  0.1077451E+00
       21   -1    0    0  504  503  0.00000000000E+00  0.00000000000E+00  0.24488437990E+04  0.24488437990E+04  0.00000000000E+00 0.  1.
       21   -1    0    0  502  504  0.00000000000E+00  0.00000000000E+00 -0.27672848160E+03  0.27672848160E+03  0.00000000000E+00 0. -1.
        6    1    1    2  501    0 -0.23600613185E+03 -0.19945525252E+03  0.72788422947E+02  0.36153623130E+03  0.17300000000E+03 0.  1.
       -6    1    1    2    0  503 -0.40108277163E+02 -0.14378279810E+02  0.11572946838E+04  0.11709292865E+04  0.17300000000E+03 0.  1.
        6    1    1    2  502    0  0.28823314202E+02 -0.16847465223E+03  0.35508827747E+03  0.43038491689E+03  0.17300000000E+03 0.  1.
       -6    1    1    2    0  501  0.24729109481E+03  0.38230818456E+03  0.58694393318E+03  0.76272184593E+03  0.17300000000E+03 0. -1.
</event>
<event>
 6   0  0.4500850E-05  0.7519532E+03  0.7546771E-02  0.9995599E-01
       21   -1    0    0  502  503  0.00000000000E+00  0.00000000000E+00  0.11932380211E+04  0.11932380211E+04  0.00000000000E+00 0. -1.
       21   -1    0    0  503  504  0.00000000000E+00  0.00000000000E+00 -0.10551715781E+04  0.10551715781E+04  0.00000000000E+00 0. -1.
        6    1    1    2  501    0  0.44530586955E+02  0.14284680761E+03 -0.11990460510E+02  0.22904356521E+03  0.17300000000E+03 0.  1.
       -6    1    1    2    0  501 -0.14896630096E+03 -0.19805498449E+03  0.22033833705E+03  0.37402502387E+03  0.17300000000E+03 0. -1.
        6    1    1    2  502    0  0.92582324816E+02 -0.40088018383E+03  0.64203428535E+03  0.78192930129E+03  0.17300000000E+03 0. -1.
       -6    1    1    2    0  504  0.11853389193E+02  0.45608836071E+03 -0.71231571889E+03  0.86341170885E+03  0.17300000000E+03 0. -1.
</event>
<event>
 6   0  0.4500850E-05  0.2189518E+03  0.7546771E-02  0.1143708E+00
       21   -1    0    0  502  503  0.00000000000E+00  0.00000000000E+00  0.74549463066E+03  0.74549463066E+03  0.00000000000E+00 0.  1.
       21   -1    0    0  501  504  0.00000000000E+00  0.00000000000E+00 -0.47943222162E+03  0.47943222162E+03  0.00000000000E+00 0. -1.
        6    1    1    2  501    0 -0.60174230732E+02  0.91586570717E+02 -0.80061528494E+02  0.21988152793E+03  0.17300000000E+03 0. -1.
       -6    1    1    2    0  504 -0.43026274827E+02  0.34247109206E+02 -0.19717611304E+03  0.26801407494E+03  0.17300000000E+03 0. -1.
        6    1    1    2  502    0  0.11575896757E+01 -0.32301464107E+02  0.30772568576E+02  0.17866358211E+03  0.17300000000E+03 0. -1.
       -6    1    1    2    0  503  0.10204291588E+03 -0.93532215816E+02  0.51252748199E+03  0.55836766729E+03  0.17300000000E+03 0.  1.
</event>
<event>
 6   0  0.4500850E-05  0.5915156E+03  0.7546771E-02  0.1032156E+00
       21   -1    0    0  502  503  0.00000000000E+00  0.00000000000E+00  0.77806013530E+03  0.77806013530E+03  0.00000000000E+00 0.  1.
       21   -1    0    0  501  504  0.00000000000E+00  0.00000000000E+00 -0.16393989071E+04  0.16393989071E+04  0.00000000000E+00 0. -1.
        6    1    1    2  501    0 -0.78163259126E+01 -0.13513423133E+02 -0.83945508010E+03  0.85723832104E+03  0.17300000000E+03 0. -1.
       -6    1    1    2    0  503  0.18794780736E+03  0.40305478096E+03 -0.57809336749E+03  0.74959887692E+03  0.17300000000E+03 0. -1.
        6    1    1    2  502    0 -0.15138358974E+03 -0.13230126847E+03  0.34162952177E+03  0.43250473642E+03  0.17300000000E+03 0.  1.
       -6    1    1    2    0  504 -0.28747891715E+02 -0.25724008936E+03  0.21458015403E+03  0.37811710799E+03  0.17300000000E+03 0.  1.
</event>
<event>
 6   0  0.4500850E-05  0.4309798E+03  0.7546771E-02  0.1060205E+00
       21   -1    0    0  502  503  0.00000000000E+00  0.00000000000E+00  0.85830854224E+03  0.85830854224E+03  0.00000000000E+00 0. -1.
       21   -1    0    0  501  504  0.00000000000E+00  0.00000000000E+00 -0.33155985284E+03  0.33155985284E+03  0.00000000000E+00 0.  1.
        6    1    1    2  501    0  0.44314353831E+02 -0.19229461637E+03  0.17157473707E+03  0.31354086152E+03  0.17300000000E+03 0. -1.
       -6    1    1    2    0  503  0.14006922813E+02 -0.19486549655E+02  0.16780215643E+03  0.24220339223E+03  0.17300000000E+03 0. -1.
        6    1    1    2  502    0 -0.62474829169E+01  0.34044085506E+03  0.93011962335E+02  0.39308934350E+03  0.17300000000E+03 0.  1.
       -6    1    1    2    0  504 -0.52073793727E+02 -0.12865968903E+03  0.94359833566E+02  0.24103479783E+03  0.17300000000E+03 0. -1.
</event>
<event>
 6   0  0.4500850E-05  0.2051324E+03  0.7546771E-02  0.1146309E+00
       21   -1    0    0  501  503  0.00000000000E+00  0.00000000000E+00  0.84115354930E+03  0.84115354930E+03  0.00000000000E+00 0.  1.
       21   -1    0    0  502  504  0.00000000000E+00  0.00000000000E+00 -0.26433271132E+03  0.26433271132E+03  0.00000000000E+00 0. -1.
        6    1    1    2  501    0 -0.87415550568E+01 -0.75745312760E+02  0.26102390545E+02  0.19085099419E+03  0.17300000000E+03 0. -1.
       -6    1    1    2    0  503  0.91232629468E+02 -0.96934100376E+02  0.36709959565E+03  0.42709568673E+03  0.17300000000E+03 0.  1.
        6    1    1    2  502    0 -0.11936212706E+03  0.12835263723E+03  0.28094964032E+02  0.24787102264E+03  0.17300000000E+03 0. -1.
       -6    1    1    2    0  504  0.36871052648E+02  0.44326775902E+02  0.15552388774E+03  0.23966855706E+03  0.17300000000E+03 0. -1.
</event>
<event>
 6   0  0.4500850E-05  0.3115501E+03  0.7546771E-02  0.1095048E+00
       21   -1    0    0  504  503  0.00000000000E+00  0.00000000000E+00  0.24810775297E+03  0.24810775297E+03  0.00000000000E+00 0. -1.
       21   -1    0    0  502  504  0.00000000000E+00  0.00000000000E+00 -0.17905751113E+04  0.17905751113E+04  0.00000000000E+00 0.  1.
        6    1    1    2  501    0  0.29342946131E+03  0.30761266345E+02 -0.69281452112E+03  0.77263708489E+03  0.17300000000E+03 0. -1.
       -6    1    1    2    0  501 -0.64834371105E+02 -0.75624643081E+02 -0.28891428796E+02  0.20170844547E+03  0.17300000000E+03 0. -1.
        6    1    1    2  502    0 -0.51788745942E+02 -0.22011029188E+03 -0.52199399820E+03  0.59459006799E+03  0.17300000000E+03 0. -1.
       -6    1    1    2    0  503 -0.17680634426E+03  0.26497366861E+03 -0.29876741024E+03  0.46974726593E+03  0.17300000000E+03 0.  1.
</event>
<event>
 6   0  0.4500850E-05  0.2513910E+03  0.7546771E-02  0.1119967E+00
       21   -1    0    0  504  503  0.00000000000E+00  0.00000000000E+00  0.36754716600E+03  0.36754716600E+03  0.00000000000E+00 0. -1.
       21   -1    0    0  502  504  0.00000000000E+00  0.00000000000E+00 -0.99992747838E+03  0.99992747838E+03  0.00000000000E+00 0.  1.
        6    1    1    2  501    0  0.18664616456E+03 -0.13736749003E+03 -0.83517072393E+02  0.30101614482E+03  0.17300000000E+03 0. -1.
       -6    1    1    2    0  501 -0.16085765295E+03 -0.14027015307E+03 -0.81943153157E+02  0.28669597260E+03  0.17300000000E+03 0. -1.
        6    1    1    2  502    0  0.20457843632E+02  0.11351032644E+03 -0.49339221263E+03  0.53541385213E+03  0.17300000000E+03 0. -1.
       -6    1    1    2    0  503 -0.46246355239E+02  0.16412731667E+03  0.26472125796E+02  0.24434867484E+03  0.17300000000E+03 0. -1.
</event>
<event>
 6   0  0.4500850E-05  0.8006172E+03  0.7546771E-02  0.9581057E-01
       -1   -1    0    0    0  501  0.00000000000E+00  0.00000000000E+00  0.12640991054E+04  0.12640991054E+04  0.00000000000E+00 0.  1.
        1   -1    0    0  503    0  0.00000000000E+00  0.00000000000E+00 -0.63369842971E+03  0.63369842971E+03  0.00000000000E+00 0. -1.
        6    1    1    2  502    0 -0.31479184638E+02 -0.24424985073E+03  0.25469016894E+03  0.39426515291E+03  0.17300000000E+03 0. -1.
       -6    1    1    2    0  502  0.29813227518E+01 -0.43236379958E+02 -0.53104701730E+02  0.18608434158E+03  0.17300000000E+03 0. -1.
        6    1    1    2  503    0  0.39432287857E+03  0.44766373857E+03 -0.10366300103E+03  0.62973674911E+03  0.17300000000E+03 0. -1.
       -6    1    1    2    0  501 -0.36582501669E+03 -0.16017750789E+03  0.53247820954E+03  0.68771129153E+03  0.17300000000E+03 0.  1.
</event>
<event>
 6   0  0.4500850E-05  0.4101412E+03  0.7546771E-02  0.1064584E+00
       21   -1    0    0  502  503  0.00000000000E+00  0.00000000000E+00  0.12776709920E+04  0.12776709920E+04  0.00000000000E+00 0. -1.
       21   -1    0    0  501  504  0.00000000000E+00  0.00000000000E+00 -0.21798920754E+04  0.21798920754E+04  0.00000000000E+00 0.  1.
        6    1    1    2  501    0 -0.14731542087E+03  0.27983097407E+03  0.49897059086E+03  0.61555491861E+03  0.17300000000E+03 0. -1.
       -6    1    1    2    0  503  0.40185174803E+03  0.18225242673E+03 -0.17169752826E+04  0.17811888994E+04  0.17300000000E+03 0.  1.
        6    1    1    2  502    0 -0.27054184506E+03 -0.41384145431E+03  0.55375316654E+03  0.76225271970E+03  0.17300000000E+03 0. -1.
       -6    1    1    2    0  504  0.16005517912E+02 -0.48241946493E+02 -0.23796955827E+03  0.29856652972E+03  0.17300000000E+03 0.  1.
</event>
<event>
 6   0  0.4500850E-05  0.2176849E+03  0.7546771E-02  0.1136518E+00
       21   -1    0    0  504  503  0.00000000000E+00  0.00000000000E+00  0.36337663510E+03  0.36337663510E+03  0.00000000000E+00 0. -1.
       21   -1    0    0  501  504  0.00000000000E+00  0.00000000000E+00 -0.71475206689E+03  0.71475206689E+03  0.00000000000E+00 0.  1.
        6    1    1    2  501    0 -0.82438057156E+02 -0.15353957003E+03 -0.30655164313E+02  0.24746549645E+03  0.17300000000E+03 0. -1.
       -6    1    1    2    0  503  0.86830451702E+02  0.31054225842E+01  0.91965918233E+02  0.21432662249E+03  0.17300000000E+03 0.  1.
        6    1    1    2  502    0 -0.79606136980E+02 -0.34578808742E+02 -0.17499441378E+03  0.26093078759E+03  0.17300000000E+03 0. -1.
       -6    1    1    2    0  502  0.75213742433E+02  0.18501295619E+03 -0.23769177193E+03  0.35540579547E+03  0.17300000000E+03 0.  1.
</event>
<event>
 6   0  0.4500850E-05  0.4040597E+03  0.7546771E-02  0.1056959E+00
       21   -1    0    0  502  503  0.00000000000E+00  0.00000000000E+00  0.23600673964E+04  0.23600673964E+04  0.00000000000E+00 0. -1.
       21   -1    0    0  503  504  0.00000000000E+00  0.00000000000E+00 -0.16485293693E+03  0.16485293693E+03  0.00000000000E+00 0. -1.
        6    1    1    2  501    0  0.12932229875E+03 -0.24372517154E+03  0.20648396492E+03  0.38560451756E+03  0.17300000000E+03 0. -1.
       -6    1    1    2    0  504 -0.89076814163E+02  0.18289539411E+03  0.46554597049E+03  0.53670052604E+03  0.17300000000E+03 0. -1.
        6    1    1    2  502    0  0.36099575211E+01  0.20041887749E+03  0.68646986397E+03  0.73576533785E+03  0.17300000000E+03 0. -1.
       -6    1    1    2    0  501 -0.43855442105E+02 -0.13958910006E+03  0.83671466004E+03  0.86684995183E+03  0.17300000000E+03 0. -1.
</event>
<event>
 6   0  0.4500850E-05  0.4999378E+03  0.7546771E-02  0.1019242E+00
       21   -1    0    0  502  503  0.00000000000E+00  0.00000000000E+00  0.12393536542E+04  0.12393536542E+04  0.00000000000E+00 0.  1.
       21   -1    0    0  501  504  0.00000000000E+00  0.00000000000E+00 -0.17177582840E+04  0.17177582840E+04  0.00000000000E+00 0.  1.
        6    1    1    2  501    0  0.11979181618E+03 -0.26272494499E+03  0.30159659416E+03  0.45195572964E+03  0.17300000000E+03 0. -1.
       -6    1    1    2    0  503  0.15346045867E+03  0.83980793425E+03  0.33250627943E+03  0.93237165586E+03  0.17300000000E+03 0.  1.
        6    1    1    2  502    0  0.23252913108E+03 -0.86227176832E+00 -0.49349908988E+03  0.57231188353E+03  0.17300000000E+03 0.  1.
       -6    1    1    2    0  504 -0.50578140593E+03 -0.57622071749E+03 -0.61900841350E+03  0.10004726692E+04  0.17300000000E+03 0.  1.
</event>
<event>
 6   0  0.4500850E-05  0.5165436E+03  0.7546771E-02  0.1046111E+00
       21   -1    0    0  504  503  0.00000000000E+00  0.00000000000E+00  0.12100037478E+04  0.12100037478E+04  0.00000000000E+00 0.  1.
       21   -1    0    0  502  504  0.00000000000E+00  0.00000000000E+00 -0.10129113148E+04  0.10129113148E+04  0.00000000000E+00 0.  1.
        6    1    1    2  501    0  0.30088043733E+03  0.37466206861E+03  0.73687453605E+03  0.89655662682E+03  0.17300000000E+03 0.  1.
       -6    1    1    2    0  501 -0.18705569311E+03 -0.50624663105E+03 -0.18433136738E+03  0.59597192616E+03  0.17300000000E+03 0.  1.
        6    1    1    2  502    0 -0.42878321867E+01 -0.14722749730E+02 -0.43342104854E+03  0.46692392334E+03  0.17300000000E+03 0.  1.
       -6    1    1    2    0  503 -0.10953691203E+03  0.14630731217E+03  0.77970312847E+02  0.26346258629E+03  0.17300000000E+03 0.  1.
</event>
<event>
 6   0  0.4500850E-05  0.5600476E+03  0.7546771E-02  0.9991947E-01
        1   -1    0    0  503    0  0.00000000000E+00  0.00000000000E+00  0.20478336407E+04  0.20478336407E+04  0.00000000000E+00 0.  1.
       -1   -1    0    0    0  501  0.00000000000E+00  0.00000000000E+00 -0.36356572370E+03  0.36356572370E+03  0.00000000000E+00 0. -1.
        6    1    1    2  502    0 -0.31431010609E+03  0.14569925412E+03  0.63556673394E+03  0.74424000748E+03  0.17300000000E+03 0.  1.
       -6    1    1    2    0  502  0.23765912460E+03  0.30124679893E+03  0.77484713268E+03  0.88178714688E+03  0.17300000000E+03 0. -1.
        6    1    1    2  503    0  0.46783530913E+02 -0.22204123126E+03  0.38496759391E+03  0.47918686909E+03  0.17300000000E+03 0.  1.
       -6    1    1    2    0  501  0.29867450570E+02 -0.22490482179E+03 -0.11111354352E+03  0.30618534097E+03  0.17300000000E+03 0.  1.
</event>
<event>
 6   0  0.4500850E-05  0.7713592E+03  0.7546771E-02  0.1005400E+00
       21   -1    0    0  502  503  0.00000000000E+00  0.00000000000E+00  0.84223472368E+03  0.84223472368E+03  0.00000000000E+00 0.  1.
       21   -1    0    0  501  504  0.00000000000E+00  0.00000000000E+00 -0.90830799875E+03  0.90830799875E+03  0.00000000000E+00 0.  1.
        6    1    1    2  501    0  0.23816022778E+03  0.19284324935E+03 -0.59595542533E+02  0.35691657514E+03  0.17300000000E+03 0. -1.
       -6    1    1    2    0  504 -0.42604248974E+03 -0.52109979262E+03  0.18902162801E+03  0.72021897559E+03  0.17300000000E+03 0.  1.
        6    1    1    2  502    0  0.22483994373E+02  0.26383139691E+02  0.85993331645E+02  0.19627901862E+03  0.17300000000E+03 0.  1.
       -6    1    1    2    0  503  0.16539826759E+03  0.30187340358E+03 -0.28149269220E+03  0.47712815309E+03  0.17300000000E+03 0.  1.
</event>
<event>
 6   0  0.4500850E-05  0.7162748E+03  0.7546771E-02  0.9701490E-01
       21   -1    0    0  501  503  0.00000000000E+00  0.00000000000E+00  0.41229973975E+03  0.41229973975E+03  0.00000000000E+00 0. -1.
       21   -1    0    0  502  504  0.00000000000E+00  0.00000000000E+00 -0.12157659329E+04  0.12157659329E+04  0.00000000000E+00 0. -1.
        6    1    1    2  501    0 -0.13394748753E+03 -0.28596047245E+03 -0.14445605132E+03  0.38795859571E+03  0.17300000000E+03 0. -1.
       -6    1    1    2    0  503  0.26757935815E+02  0.11551424986E+03 -0.10340751786E+03  0.23384106526E+03  0.17300000000E+03 0. -1.
        6    1    1    2  502    0  0.14736245591E+03  0.44675502116E+03 -0.40738463444E+03  0.64590787479E+03  0.17300000000E+03 0. -1.
       -6    1    1    2    0  504 -0.40172904199E+02 -0.27630879857E+03 -0.14821798950E+03  0.36035813687E+03  0.17300000000E+03 0.  1.
</event>
<event>
 6   0  0.4500850E-05  0.2425706E+03  0.7546771E-02  0.1119139E+00
       21   -1    0    0  501  503  0.00000000000E+00  0.00000000000E+00  0.48709911559E+03  0.48709911559E+03  0.00000000000E+00 0. -1.
       21   -1    0    0  503  504  0.00000000000E+00  0.00000000000E+00 -0.10875878586E+04  0.10875878586E+04  0.00000000000E+00 0. -1.
        6    1    1    2  501    0  0.19816213231E+03  0.21091949100E+02 -0.14380333368E+03  0.30053535528E+03  0.17300000000E+03 0. -1.
       -6    1    1    2    0  504 -0.75511436470E+02 -0.71962145197E+02 -0.42751580793E+03  0.47284172131E+03  0.17300000000E+03 0.  1.
        6    1    1    2  502    0 -0.23532856736E+03  0.11569782711E+02 -0.32584154528E+03  0.43773862877E+03  0.17300000000E+03 0. -1.
       -6    1    1    2    0  502  0.11267787152E+03  0.39300413386E+02  0.29667194389E+03  0.36357126882E+03  0.17300000000E+03 0. -1.
</event>
<event>
 6   0  0.4500850E-05  0.1086370E+04  0.7546771E-02  0.9394071E-01
        1   -1    0    0  502    0  0.00000000000E+00  0.00000000000E+00  0.44694467299E+03  0.44694467299E+03  0.00000000000E+00 0. -1.
       -1   -1    0    0    0  501  0.00000000000E+00  0.00000000000E+00 -0.16279858800E+04  0.16279858800E+04  0.00000000000E+00 0.  1.
        6    1    1    2  502    0 -0.16634789103E+03 -0.43813806566E+01  0.14176158321E+02  0.24045952011E+03  0.17300000000E+03 0.  1.
       -6    1    1    2    0  503  0.18931004650E+03  0.51189967152E+03 -0.33153103519E+03  0.66160516526E+03  0.17300000000E+03 0. -1.
        6    1    1    2  503    0  0.19291630981E+03 -0.38922252213E+03 -0.66261954425E+03  0.81098984873E+03  0.17300000000E+03 0.  1.
       -6    1    1    2    0  501 -0.21587846528E+03 -0.11829576873E+03 -0.20106678594E+03  0.36187601893E+03  0.17300000000E+03 0. -1.
</event>
<event>
 6   0  0.4500850E-05  0.5652061E+03  0.7546771E-02  0.1025858E+00
       21   -1    0    0  502  503  0.00000000000E+00  0.00000000000E+00  0.33500077272E+03  0.33500077272E+03  0.00000000000E+00 0. -1.
       21   -1    0    0  501  504  0.00000000000E+00  0.00000000000E+00 -0.18969783225E+04  0.18969783225E+04  0.00000000000E+00 0.  1.
        6    1    1    2  501    0  0.23239903697E+03  0.15461099225E+03  0.28112161234E+02  0.32959545646E+03  0.17300000000E+03 0. -1.
       -6    1    1    2    0  503  0.37545479671E+02  0.17109384952E+03 -0.65693517560E+02  0.25480856861E+03  0.17300000000E+03 0. -1.
        6    1    1    2  502    0 -0.10344400044E+03 -0.32663944525E+03 -0.88872184323E+03  0.96806482379E+03  0.17300000000E+03 0.  1.
       -6    1    1    2    0  504 -0.16650051621E+03  0.93460347619E+00 -0.63567435026E+03  0.67951024640E+03  0.17300000000E+03 0. -1.
</event>
<event>
 6   0  0.4500850E-05  0.5710272E+03  0.7546771E-02  0.1025368E+00
       21   -1    0    0  502  503  0.00000000000E+00  0.00000000000E+00  0.30178211765E+03  0.30178211765E+03  0.00000000000E+00 0. -1.
       21   -1    0    0  501  504  0.00000000000E+00  0.00000000000E+00 -0.17486062762E+04  0.17486062762E+04  0.00000000000E+00 0. -1.
        6    1    1    2  501    0  0.13548813795E+03  0.28417328288E+03 -0.95196944123E+02  0.37162205047E+03  0.17300000000E+03 0. -1.
       -6    1    1    2    0  503  0.14413314631E+03  0.69387478804E+02 -0.73120279675E+02  0.24670744087E+03  0.17300000000E+03 0. -1.
        6    1    1    2  502    0  0.14317660017E+02 -0.16029690148E+03 -0.33122703726E+03  0.40686661479E+03  0.17300000000E+03 0.  1.
       -6    1    1    2    0  504 -0.29393894427E+03 -0.19326386020E+03 -0.94727989744E+03  0.10251922877E+04  0.17300000000E+03 0. -1.
</event>
<event>
 6   0  0.4500850E-05  0.3345973E+03  0.7546771E-02  0.1079641E+00
       21   -1    0    0  502  503  0.00000000000E+00  0.00000000000E+00  0.39982654752E+03  0.39982654752E+03  0.00000000000E+00 0. -1.
       21   -1    0    0  501  504  0.00000000000E+00  0.00000000000E+00 -0.89137516130E+03  0.89137516130E+03  0.00000000000E+00 0. -1.
        6    1    1    2  501    0 -0.82304659658E+02  0.19048084379E+03 -0.58899848740E+03  0.64800094676E+03  0.17300000000E+03 0. -1.
       -6    1    1    2    0  504 -0.77853502089E+02 -0.67409313885E+02 -0.39267163728E+02  0.20512458052E+03  0.17300000000E+03 0.  1.
        6    1    1    2  502    0  0.11446934070E+03 -0.20670127191E+02  0.49757166942E+02  0.21432512634E+03  0.17300000000E+03 0. -1.
       -6    1    1    2    0  503  0.45688821049E+02 -0.10240140271E+03  0.86959870402E+02  0.22375105521E+03  0.17300000000E+03 0. -1.
</event>
<event>
 6   0  0.4500850E-05  0.3446151E+03  0.7546771E-02  0.1088780E+00
       21   -1    0    0  501  503  0.00000000000E+00  0.00000000000E+00  0.24032261321E+04  0.24032261321E+04  0.00000000000E+00 0. -1.
       21   -1    0    0  502  504  0.00000000000E+00  0.00000000000E+00 -0.34540422981E+03  0.34540422981E+03  0.00000000000E+00 0. -1.
        6    1    1    2  501    0  0.21673187124E+02 -0.45316837641E+02  0.54847649593E+03  0.57730304815E+03  0.17300000000E+03 0.  1.
       -6    1    1    2    0  503 -0.13044315199E+03  0.21907717111E+03  0.32789479262E+03  0.44994912804E+03  0.17300000000E+03 0. -1.
        6    1    1    2  502    0 -0.23054618548E+03 -0.19177661962E+03 -0.11907262548E+03  0.36611078325E+03  0.17300000000E+03 0. -1.
       -6    1    1    2    0  504  0.33931615035E+03  0.18016286151E+02  0.13005232392E+04  0.13552674025E+04  0.17300000000E+03 0. -1.
</event>
<event>
 6   0  0.4500850E-05  0.2754372E+03  0.7546771E-02  0.1112446E+00
       21   -1    0    0  501  503  0.00000000000E+00  0.00000000000E+00  0.38280171751E+03  0.38280171751E+03  0.00000000000E+00 0. -1.
       21   -1    0    0  503  504  0.00000000000E+00  0.00000000000E+00 -0.19486237644E+04  0.19486237644E+04  0.00000000000E+00 0. -1.
        6    1    1    2  501    0 -0.80191665638E+02 -0.11847813349E+02  0.56738947840E+02  0.19929722056E+03  0.17300000000E+03 0.  1.
       -6    1    1    2    0  504 -0.24680761711E+03  0.19556884733E+03 -0.58619696558E+02  0.36404181454E+03  0.17300000000E+03 0. -1.
        6    1    1    2  502    0  0.10520445229E+03 -0.17893723188E+03 -0.14321520169E+04  0.14574206356E+04  0.17300000000E+03 0. -1.
       -6    1    1    2    0  502  0.22179483045E+03 -0.47838021012E+01 -0.13178928131E+03  0.31066581120E+03  0.17300000000E+03 0.  1.
</event>
<event>
 6   0  0.4500850E-05  0.3314185E+03  0.7546771E-02  0.1083979E+00
       21   -1    0    0  501  503  0.00000000000E+00  0.00000000000E+00  0.10712574371E+04  0.10712574371E+04  0.00000000000E+00 0. -1.
       21   -1    0    0  502  504  0.00000000000E+00  0.00000000000E+00 -0.64900804858E+03  0.64900804858E+03  0.00000000000E+00 0. -1.
        6    1    1    2  501    0  0.80332714705E+02  0.86793442094E+02  0.54093846784E+03  0.58011194837E+03  0.17300000000E+03 0. -1.
       -6    1    1    2    0  503  0.14839922438E+03 -0.25978172220E+03  0.12408140170E+02  0.34582052416E+03  0.17300000000E+03 0. -1.
        6    1    1    2  502    0 -0.19518214106E+03 -0.18119033897E+03 -0.22318651126E+03  0.38815876382E+03  0.17300000000E+03 0.  1.
       -6    1    1    2    0  504 -0.33549798028E+02  0.35417861908E+03  0.92089291745E+02  0.40617424932E+03  0.17300000000E+03 0. -1.
</event>
<event>
 6   0  0.4500850E-05  0.2548392E+03  0.7546771E-02  0.1113506E+00
       21   -1    0    0  502  503  0.00000000000E+00  0.00000000000E+00  0.12009644163E+04  0.12009644163E+04  0.00000000000E+00 0. -1.
       21   -1    0    0  503  504  0.00000000000E+00  0.00000000000E+00 -0.30855621671E+03  0.30855621671E+03  0.00000000000E+00 0. -1.
        6    1    1    2  501    0 -0.95668782473E+02 -0.33909569555E+03  0.20723631387E+03  0.44386292531E+03  0.17300000000E+03 0. -1.
       -6    1    1    2    0  501  0.24288624720E+02  0.21335868465E+03  0.14001028952E+03  0.30926323218E+03  0.17300000000E+03 0.  1.
        6    1    1    2  502    0  0.87332643763E+01  0.60527276602E+02  0.52969399837E+03  0.56057519838E+03  0.17300000000E+03 0. -1.
       -6    1    1    2    0  504  0.62646893377E+02  0.65209734297E+02  0.15467597779E+02  0.19581927708E+03  0.17300000000E+03 0. -1.
</event>
<event>
 6   0  0.4500850E-05  0.4389645E+03  0.7546771E-02  0.1038984E+00
       21   -1    0    0  501  503  0.00000000000E+00  0.00000000000E+00  0.23565722183E+04  0.23565722183E+04  0.00000000000E+00 0. -1.
       21   -1    0    0  502  504  0.00000000000E+00  0.00000000000E+00 -0.19471683646E+03  0.19471683646E+03  0.00000000000E+00 0. -1.
        6    1    1    2  501    0  0.21895263582E+03  0.10338775710E+03  0.55620503001E+03  0.63081084365E+03  0.17300000000E+03 0. -1.
       -6    1    1    2    0  504 -0.19370388992E+03 -0.35509098580E+02  0.79106629110E+03  0.83336484805E+03  0.17300000000E+03 0. -1.
        6    1    1    2  502    0 -0.19087111706E+03 -0.23530368376E+03  0.68233876914E+03  0.76636466697E+03  0.17300000000E+03 0. -1.
       -6    1    1    2    0  503  0.16562237116E+03  0.16742502524E+03  0.13224529161E+03  0.32074869611E+03  0.17300000000E+03 0.  1.
</event>
<event>
 6   0  0.4500850E-05  0.4102904E+03  0.7546771E-02  0.1060278E+00
       21   -1    0    0  501  503  0.00000000000E+00  0.00000000000E+00  0.69984290761E+03  0.69984290761E+03  0.00000000000E+00 0.  1.
       21   -1    0    0  502  504  0.00000000000E+00  0.00000000000E+00 -0.92960941209E+03  0.92960941209E+03  0.00000000000E+00 0.  1.
        6    1    1    2  501    0  0.36540566578E+03  0.16395319200E+03 -0.41937707024E+03  0.60515128422E+03  0.17300000000E+03 0.  1.
       -6    1    1    2    0  504 -0.34375033964E+03 -0.13919297853E+02 -0.11449405359E+03  0.40174112456E+03  0.17300000000E+03 0.  1.
        6    1    1    2  502    0 -0.17462350285E+03 -0.12872293514E+03  0.56232786054E+02  0.28311497313E+03  0.17300000000E+03 0.  1.
       -6    1    1    2    0  503  0.15296817671E+03 -0.21310959000E+02  0.24787183330E+03  0.33944493780E+03  0.17300000000E+03 0.  1.
</event>
<event>
 6   0  0.4500850E-05  0.7685610E+03  0.7546771E-02  0.9609919E-01
       21   -1    0    0  501  503  0.00000000000E+00  0.00000000000E+00  0.21256110338E+04  0.21256110338E+04  0.00000000000E+00 0.  1.
       21   -1    0    0  503  504  0.00000000000E+00  0.00000000000E+00 -0.43878891606E+03  0.43878891606E+03  0.00000000000E+00 0.  1.
        6    1    1    2  501    0  0.10888577263E+03 -0.11123527474E+03  0.32464969226E+03  0.39944438976E+03  0.17300000000E+03 0. -1.
       -6    1    1    2    0  504 -0.10963268147E+03  0.38436673562E+03  0.23691390802E+02  0.43617358275E+03  0.17300000000E+03 0.  1.
        6    1    1    2  502    0 -0.22797767913E+03  0.15262419468E+03  0.33016398751E+02  0.32601694676E+03  0.17300000000E+03 0.  1.
       -6    1    1    2    0  502  0.22872458798E+03 -0.42575565556E+03  0.13054646359E+04  0.14027650306E+04  0.17300000000E+03 0.  1.
</event>
<event>
 6   0  0.4500850E-05  0.2326966E+03  0.7546771E-02  0.1125249E+00
       21   -1    0    0  502  503  0.00000000000E+00  0.00000000000E+00  0.10478751374E+04  0.10478751374E+04  0.00000000000E+00 0. -1.
       21   -1    0    0  503  504  0.00000000000E+00  0.00000000000E+00 -0.35575628112E+03  0.35575628112E+03  0.00000000000E+00 0. -1.
        6    1    1    2  501    0  0.44722678839E+02 -0.14563069989E+03 -0.28651789343E+02  0.23228935358E+03  0.17300000000E+03 0. -1.
       -6    1    1    2    0  504 -0.14641272428E+03 -0.36084320610E+02 -0.19133903202E+02  0.23029083846E+03  0.17300000000E+03 0. -1.
        6    1    1    2  502    0  0.15894926041E+03  0.20727667961E+02  0.63285734072E+03  0.67537538992E+03  0.17300000000E+03 0. -1.
       -6    1    1    2    0  501 -0.57259214963E+02  0.16098735254E+03  0.10704720813E+03  0.26567583658E+03  0.17300000000E+03 0.  1.
</event>
<event>
 6   0  0.4500850E-05  0.3130967E+03  0.7546771E-02  0.1099295E+00
       21   -1    0    0  501  503  0.00000000000E+00  0.00000000000E+00  0.17923492952E+04  0.17923492952E+04  0.00000000000E+00 0. -1.
       21   -1    0    0  503  504  0.00000000000E+00  0.00000000000E+00 -0.11520713251E+04  0.11520713251E+04  0.00000000000E+00 0. -1.
        6    1    1    2  501    0 -0.12163281935E+03  0.12730625310E+02  0.12111659976E+04  0.12295562961E+04  0.17300000000E+03 0. -1.
       -6    1    1    2    0  504  0.30298222963E+03  0.17865080427E+03  0.97133010425E+02  0.40382937369E+03  0.17300000000E+03 0. -1.
        6    1    1    2  502    0 -0.20907170374E+03 -0.14105234295E+03 -0.93725550840E+03  0.98589230080E+03  0.17300000000E+03 0. -1.
       -6    1    1    2    0  502  0.27722293454E+02 -0.50329086634E+02  0.26923447056E+03  0.32514264970E+03  0.17300000000E+03 0. -1.
</event>
<event>
 6   0  0.4500850E-05  0.2245566E+03  0.7546771E-02  0.1136964E+00
       21   -1    0    0  502  503  0.00000000000E+00  0.00000000000E+00  0.74653770972E+03  0.74653770972E+03  0.00000000000E+00 0.  1.
       21   -1    0    0  501  504  0.00000000000E+00  0.00000000000E+00 -0.47651038398E+03  0.47651038398E+03  0.00000000000E+00 0.  1.
        6    1    1    2  501    0 -0.43388249626E+02  0.11724960738E+01 -0.23096367088E+03  0.29181694985E+03  0.17300000000E+03 0.  1.
       -6    1    1    2    0  504 -0.48912994652E+01 -0.19823493797E+03  0.14431870553E+03  0.30012981226E+03  0.17300000000E+03 0.  1.
        6    1    1    2  502    0 -0.45997585625E+02  0.94649430211E+02 -0.96639538991E+01  0.20272317215E+03  0.17300000000E+03 0. -1.
       -6    1    1    2    0  503  0.94277134716E+02  0.10241301168E+03  0.36633624499E+03  0.42837815944E+03  0.17300000000E+03 0.  1.
</event>
<event>
 6   0  0.4500850E-05  0.3520546E+03  0.7546771E-02  0.1073574E+00
       21   -1    0    0  504  503  0.00000000000E+00  0.00000000000E+00  0.45527452284E+03  0.45527452284E+03  0.00000000000E+00 0.  1.
       21   -1    0    0  502  504  0.00000000000E+00  0.00000000000E+00 -0.18547258290E+04  0.18547258290E+04  0.00000000000E+00 0. -1.
        6    1    1    2  501    0  0.14661024927E+02 -0.73616512575E+02  0.89209234906E+02  0.20861836968E+03  0.17300000000E+03 0. -1.
       -6    1    1    2    0  501 -0.15611970609E+02  0.35086290798E+03 -0.10645254408E+04  0.11342362752E+04  0.17300000000E+03 0. -1.
        6    1    1    2  502    0 -0.17119118052E+03  0.10664035266E+03 -0.43770344366E+03  0.51204676515E+03  0.17300000000E+03 0. -1.
       -6    1    1    2    0  503  0.17214212620E+03 -0.38388674806E+03  0.13568343349E+02  0.45509894187E+03  0.17300000000E+03 0.  1.
</event>
<event>
 6   0  0.4500850E-05  0.3528397E+03  0.7546771E-02  0.1065676E+00
       21   -1    0    0  501  503  0.00000000000E+00  0.00000000000E+00  0.16349725496E+04  0.16349725496E+04  0.00000000000E+00 0. -1.
       21   -1    0    0  503  504  0.00000000000E+00  0.00000000000E+00 -0.26813386115E+03  0.26813386115E+03  0.00000000000E+00 0.  1.
        6    1    1    2  501    0  0.19617418517E+03 -0.73346911257E+02  0.99047215721E+03  0.10270482825E+04  0.17300000000E+03 0. -1.
       -6    1    1    2    0  504  0.15143318430E+03  0.10013430776E+03  0.26595848724E+02  0.25218094311E+03  0.17300000000E+03 0. -1.
        6    1    1    2  502    0 -0.20015068442E+03  0.60638343311E+02  0.15946052404E+03  0.31479193744E+03  0.17300000000E+03 0.  1.
       -6    1    1    2    0  502 -0.14745668505E+03 -0.87425739810E+02  0.19031015851E+03  0.30908524775E+03  0.17300000000E+03 0.  1.
</event>
<event>
 6   0  0.4500850E-05  0.3171553E+03  0.7546771E-02  0.1083090E+00
       21   -1    0    0  501  503  0.00000000000E+00  0.00000000000E+00  0.16809687200E+03  0.16809687200E+03  0.00000000000E+00 0.  1.
       21   -1    0    0  503  504  0.00000000000E+00  0.00000000000E+00 -0.21428491662E+04  0.21428491662E+04  0.00000000000E+00 0.  1.
        6    1    1    2  501    0 -0.78394849775E+02  0.11870786441E+03 -0.17785454814E+03  0.28600445772E+03  0.17300000000E+03 0.  1.
       -6    1    1    2    0  502  0.12505067092E+03 -0.12726141149E+02 -0.19452484069E+03  0.28908223503E+03  0.17300000000E+03 0.  1.
        6    1    1    2  502    0  0.72220203668E+02 -0.16247669273E+03 -0.14483624727E+04  0.14694547580E+04  0.17300000000E+03 0.  1.
       -6    1    1    2    0  504 -0.11887602481E+03  0.56494969475E+02 -0.15401043274E+03  0.26640458750E+03  0.17300000000E+03 0. -1.
</event>
<event>
 6   0  0.4500850E-05  0.2083087E+03  0.7546771E-02  0.1145980E+00
       21   -1    0    0  501  503  0.00000000000E+00  0.00000000000E+00  0.97032107113E+03  0.97032107113E+03  0.00000000000E+00 0.  1.
       21   -1    0    0  502  504  0.00000000000E+00  0.00000000000E+00 -0.82962158841E+03  0.82962158841E+03  0.00000000000E+00 0.  1.
        6    1    1    2  501    0  0.44654024159E+02  0.12958650889E+03 -0.16679871155E+03  0.27665403546E+03  0.17300000000E+03 0.  1.
       -6    1    1    2    0  503 -0.51773595528E+02  0.69694890242E+02  0.79259452232E+03  0.81588783526E+03  0.17300000000E+03 0.  1.
        6    1    1    2  502    0 -0.32720221622E+01 -0.88717784563E+02 -0.15844673687E+02  0.19509383668E+03  0.17300000000E+03 0. -1.
       -6    1    1    2    0  504  0.10391593531E+02 -0.11056361457E+03 -0.46925165437E+03  0.51230695214E+03  0.17300000000E+03 0.  1.
</event>
<event>
 6   0  0.4500850E-05  0.3263544E+03  0.7546771E-02  0.1095089E+00
       21   -1    0    0  504  503  0.00000000000E+00  0.00000000000E+00  0.11658371856E+04  0.11658371856E+04  0.00000000000E+00 0. -1.
       21   -1    0    0  502  504  0.00000000000E+00  0.00000000000E+00 -0.53462473097E+03  0.53462473097E+03  0.00000000000E+00 0.  1.
        6    1    1    2  501    0 -0.29109349473E+03  0.18471556524E+03  0.36350122043E+02  0.38743463202E+03  0.17300000000E+03 0.  1.
       -6    1    1    2    0  503  0.19614077564E+03 -0.17955169288E+03  0.81398067016E+03  0.87361521603E+03  0.17300000000E+03 0. -1.
        6    1    1    2  502    0  0.59596414464E+02  0.27823380378E+02 -0.47731166956E+02  0.19113643664E+03  0.17300000000E+03 0.  1.
       -6    1    1    2    0  501  0.35356304629E+02 -0.32987252735E+02 -0.17138717064E+03  0.24827563187E+03  0.17300000000E+03 0.  1.
</event>
<event>
 6   0  0.4500850E-05  0.2687612E+03  0.7546771E-02  0.1108202E+00
       21   -1    0    0  501  503  0.00000000000E+00  0.00000000000E+00  0.10643310939E+04  0.10643310939E+04  0.00000000000E+00 0.  1.
       21   -1    0    0  502  504  0.00000000000E+00  0.00000000000E+00 -0.61939908918E+03  0.61939908918E+03  0.00000000000E+00 0.  1.
        6    1    1    2  501    0 -0.19979933167E+03  0.20601767096E+03  0.50371750209E+02  0.33886482099E+03  0.17300000000E+03 0.  1.
       -6    1    1    2    0  504 -0.98456864161E+02 -0.20197577139E+03 -0.32100799661E+03  0.42832592755E+03  0.17300000000E+03 0. -1.
        6    1    1    2  502    0  0.14517295043E+03 -0.38531309033E+02  0.62562361949E+03  0.66625352576E+03  0.17300000000E+03 0. -1.
       -6    1    1    2    0  503  0.15308324540E+03  0.34489409456E+02  0.89944631678E+02  0.25028590882E+03  0.17300000000E+03 0.  1.
</event>
<event>
 6   0  0.4500850E-05  0.2728632E+03  0.7546771E-02  0.1100638E+00
       21   -1    0    0  501  503  0.00000000000E+00  0.00000000000E+00  0.60641409731E+03  0.60641409731E+03  0.00000000000E+00 0.  1.
       21   -1    0    0  502  504  0.00000000000E+00  0.00000000000E+00 -0.96806513681E+03  0.96806513681E+03  0.00000000000E+00 0.  1.
        6    1    1    2  501    0  0.18949707595E+03  0.16646591781E+03 -0.46654702379E+02  0.30939570915E+03  0.17300000000E+03 0. -1.
       -6    1    1    2    0  503 -0.21305539071E+03 -0.15062020530E+03  0.17149234630E+02  0.31353172408E+03  0.17300000000E+03 0. -1.
        6    1    1    2  502    0  0.91835805027E+01 -0.18338320501E+03  0.22901962015E+03  0.34072382430E+03  0.17300000000E+03 0.  1.
       -6    1    1    2    0  504  0.14374734252E+02  0.16753749250E+03 -0.56116519191E+03  0.61082797659E+03  0.17300000000E+03 0.  1.
</event>
<event>
 6   0  0.4500850E-05  0.6291751E+03  0.7546771E-02  0.9854187E-01
       21   -1    0    0  502  503  0.00000000000E+00  0.00000000000E+00  0.53970763448E+03  0.53970763448E+03  0.00000000000E+00 0.  1.
       21   -1    0    0  501  504  0.00000000000E+00  0.00000000000E+00 -0.77449831846E+03  0.77449831846E+03  0.00000000000E+00 0.  1.
        6    1    1    2  501    0 -0.15485861149E+03 -0.19860417092E+03  0.82991709815E+02  0.31660927048E+03  0.17300000000E+03 0.  1.
       -6    1    1    2    0  503 -0.58832338787E+02 -0.23819138604E+03 -0.18257614044E+02  0.30076356319E+03  0.17300000000E+03 0. -1.
        6    1    1    2  502    0  0.21446112128E+02  0.96387097815E+02 -0.12435854000E+03  0.23482856475E+03  0.17300000000E+03 0.  1.
       -6    1    1    2    0  504  0.19224483815E+03  0.34040845914E+03 -0.17516623976E+03  0.46200455452E+03  0.17300000000E+03 0.  1.
</event>
<event>
 6   0  0.4500850E-05  0.6193449E+03  0.7546771E-02  0.9873245E-01
       21   -1    0    0  501  503  0.00000000000E+00  0.00000000000E+00  0.93341789527E+03  0.93341789527E+03  0.00000000000E+00 0.  1.
       21   -1    0    0  502  504  0.00000000000E+00  0.00000000000E+00 -0.69780786474E+03  0.69780786474E+03  0.00000000000E+00 0.  1.
        6    1    1    2  501    0 -0.44337050452E+02 -0.29017001765E+03  0.48234516408E+03  0.59055081957E+03  0.17300000000E+03 0.  1.
       -6    1    1    2    0  503  0.21432708379E+02  0.14361420621E+03 -0.13119685988E+03  0.26120110500E+03  0.17300000000E+03 0.  1.
        6    1    1    2  502    0  0.19362814664E+00  0.33593248434E+03 -0.28318941809E+03  0.47220325925E+03  0.17300000000E+03 0.  1.
       -6    1    1    2    0  504  0.22710713927E+02 -0.18937667289E+03  0.16765114442E+03  0.30727057618E+03  0.17300000000E+03 0. -1.
</event>
<event>
 6   0  0.4500850E-05  0.1942981E+03  0.7546771E-02  0.1155219E+00
       21   -1    0    0  501  503  0.00000000000E+00  0.00000000000E+00  0.94541736500E+03  0.94541736500E+03  0.00000000000E+00 0.  1.
       21   -1    0    0  502  504  0.00000000000E+00  0.00000000000E+00 -0.15726668465E+04  0.15726668465E+04  0.00000000000E+00 0.  1.
        6    1    1    2  501    0 -0.53976533452E+02 -0.36599284795E+02 -0.36692035156E+03  0.41086800581E+03  0.17300000000E+03 0.  1.
       -6    1    1    2    0  504  0.39992864196E+01  0.12856402135E+03 -0.11105714619E+04  0.11313013188E+04  0.17300000000E+03 0.  1.
        6    1    1    2  502    0 -0.53907252857E+02 -0.46789196905E+02  0.68821938493E+03  0.71321114872E+03  0.17300000000E+03 0.  1.
       -6    1    1    2    0  503  0.10388449989E+03 -0.45175539647E+02  0.16202294703E+03  0.26270373820E+03  0.17300000000E+03 0. -1.
</event>
<event>
 6   0  0.4500850E-05  0.2483965E+03  0.7546771E-02  0.1124157E+00
       21   -1    0    0  504  503  0.00000000000E+00  0.00000000000E+00  0.14799649749E+04  0.14799649749E+04  0.00000000000E+00 0.  1.
       21   -1    0    0  502  504  0.00000000000E+00  0.00000000000E+00 -0.28496385282E+03  0.28496385282E+03  0.00000000000E+00 0. -1.
        6    1    1    2  501    0  0.19903109105E+03 -0.14934586163E+03  0.24314625532E+03  0.38854428714E+03  0.17300000000E+03 0. -1.
       -6    1    1    2    0  503 -0.33780763728E+02  0.16915998211E+03  0.79766850540E+03  0.83424234132E+03  0.17300000000E+03 0.  1.
        6    1    1    2  502    0 -0.82915705140E+02  0.29943757422E+02 -0.10125282536E+03  0.21898122616E+03  0.17300000000E+03 0. -1.
       -6    1    1    2    0  501 -0.82334622182E+02 -0.49757877903E+02  0.25543918672E+03  0.32316097310E+03  0.17300000000E+03 0.  1.
</event>
<event>
 6   0  0.4500850E-05  0.4401852E+03  0.7546771E-02  0.1045864E+00
       21   -1    0    0  504  503  0.00000000000E+00  0.00000000000E+00  0.94386533988E+03  0.94386533988E+03  0.00000000000E+00 0. -1.
       21   -1    0    0  501  504  0.00000000000E+00  0.00000000000E+00 -0.55281440995E+03  0.55281440995E+03  0.00000000000E+00 0. -1.
        6    1    1    2  501    0 -0.30108694867E+03  0.23499296110E+02 -0.17722690098E+03  0.39056874172E+03  0.17300000000E+03 0. -1.
       -6    1    1    2    0  503 -0.10062215980E+03  0.12902367562E+03  0.44063214477E+03  0.50085688067E+03  0.17300000000E+03 0.  1.
        6    1    1    2  502    0  0.82647412392E+02  0.12391122570E+02  0.26309963227E+02  0.19392098612E+03  0.17300000000E+03 0. -1.
       -6    1    1    2    0  502  0.31906169608E+03 -0.16491409430E+03  0.10133572291E+03  0.41133314131E+03  0.17300000000E+03 0. -1.
</event>
<event>
 6   0  0.4500850E-05  0.2187988E+03  0.7546771E-02  0.1136165E+00
       21   -1    0    0  502  503  0.00000000000E+00  0.00000000000E+00  0.55494064875E+03  0.55494064875E+03  0.00000000000E+00 0. -1.
       21   -1    0    0  501  504  0.00000000000E+00  0.00000000000E+00 -0.43646507189E+03  0.43646507189E+03  0.00000000000E+00 0.  1.
        6    1    1    2  501    0 -0.10377511561E+03  0.65822652194E+02  0.15425445130E+03  0.26234582503E+03  0.17300000000E+03 0. -1.
       -6    1    1    2    0  503  0.12007186013E+03  0.12270412649E+03  0.11848195309E+03  0.27099912816E+03  0.17300000000E+03 0.  1.
        6    1    1    2  502    0 -0.83475755784E+02 -0.12651726073E+03 -0.46440283725E+02  0.23464977950E+03  0.17300000000E+03 0. -1.
       -6    1    1    2    0  504  0.67179011264E+02 -0.62009517957E+02 -0.10782054381E+03  0.22341098796E+03  0.17300000000E+03 0.  1.
</event>
<event>
 6   0  0.4500850E-05  0.2927425E+03  0.7546771E-02  0.1093315E+00
       21   -1    0    0  501  503  0.00000000000E+00  0.00000000000E+00  0.70936207325E+03  0.70936207325E+03  0.00000000000E+00 0.  1.
       21   -1    0    0  502  504  0.00000000000E+00  0.00000000000E+00 -0.61608817780E+03  0.61608817780E+03  0.00000000000E+00 0.  1.
        6    1    1    2  501    0 -0.15177513794E+03  0.26831119536E+03  0.15951786225E+03  0.38781637205E+03  0.17300000000E+03 0.  1.
       -6    1    1    2    0  503  0.45166181092E+02  0.12556039160E+03  0.17053212581E+03  0.27715627683E+03  0.17300000000E+03 0. -1.
        6    1    1    2  502    0 -0.66224811961E+02 -0.45695941522E+02 -0.63672531068E+02  0.20113934474E+03  0.17300000000E+03 0. -1.
       -6    1    1    2    0  504  0.17283376881E+03 -0.34817564544E+03 -0.17310356154E+03  0.45933825743E+03  0.17300000000E+03 0.  1.
</event>
<event>
 6   0  0.4500850E-05  0.2735266E+03  0.7546771E-02  0.1108020E+00
       21   -1    0    0  501  503  0.00000000000E+00  0.00000000000E+00  0.46046353228E+03  0.46046353228E+03  0.00000000000E+00 0.  1.
       21   -1    0    0  502  504  0.00000000000E+00  0.00000000000E+00 -0.10248996022E+04  0.10248996022E+04  0.00000000000E+00 0. -1.
        6    1    1    2  501    0  0.28860542136E+03  0.12747755449E+03 -0.40258892977E+03  0.53995413001E+03  0.17300000000E+03 0. -1.
       -6    1    1    2    0  503 -0.10306362577E+03  0.42550897184E+02  0.20939345273E+03  0.29361081018E+03  0.17300000000E+03 0.  1.
        6    1    1    2  502    0 -0.99026779493E+02 -0.20049843102E+03 -0.35710535020E+03  0.45547684358E+03  0.17300000000E+03 0. -1.
       -6    1    1    2    0  504 -0.86515016095E+02  0.30469979343E+02 -0.14135242639E+02  0.19632135069E+03  0.17300000000E+03 0. -1.
</event>
<event>
 6   0  0.4500850E-05  0.4263266E+03  0.7546771E-02  0.1035027E+00
        2   -1    0    0  503    0  0.00000000000E+00  0.00000000000E+00  0.18324924086E+04  0.18324924086E+04  0.00000000000E+00 0. -1.
       -2   -1    0    0    0  501  0.00000000000E+00  0.00000000000E+00 -0.16718220450E+03  0.16718220450E+03  0.00000000000E+00 0.  1.
        6    1    1    2  502    0  0.16723917750E+03 -0.49124511447E+02  0.94299949843E+02  0.26306584852E+03  0.17300000000E+03 0. -1.
       -6    1    1    2    0  501  0.11333224949E+03 -0.71335840524E+02  0.72978458747E+03  0.76187108163E+03  0.17300000000E+03 0. -1.
        6    1    1    2  503    0 -0.21307895867E+03  0.79725008773E+02  0.62223674435E+03  0.68473811467E+03  0.17300000000E+03 0.  1.
       -6    1    1    2    0  502 -0.67492468311E+02  0.40735343198E+02  0.21898892246E+03  0.28999956832E+03  0.17300000000E+03 0.  1.
</event>
<event>
 6   0  0.4500850E-05  0.1933222E+03  0.7546771E-02  0.1157221E+00
       21   -1    0    0  502  503  0.00000000000E+00  0.00000000000E+00  0.55834199949E+03  0.55834199949E+03  0.00000000000E+00 0. -1.
       21   -1    0    0  501  504  0.00000000000E+00  0.00000000000E+00 -0.34980283841E+03  0.34980283841E+03  0.00000000000E+00 0.  1.
        6    1    1    2  501    0 -0.42123865618E+02  0.72074633400E+02  0.22080561131E+03  0.29266583473E+03  0.17300000000E+03 0. -1.
       -6    1    1    2    0  503  0.26587566906E+02  0.67330212163E+02 -0.27259002342E+02  0.18950543368E+03  0.17300000000E+03 0.  1.
        6    1    1    2  502    0  0.76221866272E+02 -0.38028035540E+02 -0.62338342604E+02  0.20265974771E+03  0.17300000000E+03 0.  1.
       -6    1    1    2    0  504 -0.60685567559E+02 -0.10137681002E+03  0.77330894718E+02  0.22331382178E+03  0.17300000000E+03 0.  1.
</event>
<event>
 6   0  0.4500850E-05  0.3958789E+03  0.7546771E-02  0.1051672E+00
       21   -1    0    0  501  503  0.00000000000E+00  0.00000000000E+00  0.93178860606E+03  0.93178860606E+03  0.00000000000E+00 0. -1.
       21   -1    0    0  503  504  0.00000000000E+00  0.00000000000E+00 -0.70152062110E+03  0.70152062110E+03  0.00000000000E+00 0.  1.
        6    1    1    2  501    0  0.32108009404E+02  0.23194092572E+03 -0.82608575399E+02  0.30262302295E+03  0.17300000000E+03 0. -1.
       -6    1    1    2    0  504  0.42303063363E+02  0.10604248530E+03 -0.18364623435E+03  0.27692868622E+03  0.17300000000E+03 0. -1.
        6    1    1    2  502    0  0.14316899941E+03 -0.15854005789E+03 -0.16037028550E+03  0.31824509551E+03  0.17300000000E+03 0. -1.
       -6    1    1    2    0  502 -0.21758007218E+03 -0.17944335312E+03  0.65689308021E+03  0.73551242248E+03  0.17300000000E+03 0. -1.
</event>
<event>
 6   0  0.4500850E-05  0.2555672E+03  0.7546771E-02  0.1112639E+00
       21   -1    0    0  502  503  0.00000000000E+00  0.00000000000E+00  0.23766389886E+03  0.23766389886E+03  0.00000000000E+00 0.  1.
       21   -1    0    0  503  504  0.00000000000E+00  0.00000000000E+00 -0.16687595998E+04  0.16687595998E+04  0.00000000000E+00 0. -1.
        6    1    1    2  501    0 -0.55336662084E+02  0.57052435453E+02 -0.32846560414E+03  0.37965218248E+03  0.17300000000E+03 0.  1.
       -6    1    1    2    0  504 -0.56602381824E+02 -0.30252540721E+03 -0.89026719623E+03  0.95772132289E+03  0.17300000000E+03 0.  1.
        6    1    1    2  502    0  0.11750426420E+03  0.34258438674E+00 -0.16252113642E+03  0.26485748857E+03  0.17300000000E+03 0.  1.
       -6    1    1    2    0  501 -0.55652202930E+01  0.24513038737E+03 -0.49841764194E+02  0.30419250475E+03  0.17300000000E+03 0.  1.
</event>
<event>
 6   0  0.4500850E-05  0.1995345E+03  0.7546771E-02  0.1154788E+00
       21   -1    0    0  502  503  0.00000000000E+00  0.00000000000E+00  0.74252966499E+03  0.74252966499E+03  0.00000000000E+00 0. -1.
       21   -1    0    0  501  504  0.00000000000E+00  0.00000000000E+00 -0.50356054688E+03  0.50356054688E+03  0.00000000000E+00 0. -1.
        6    1    1    2  501    0 -0.68812570831E+02 -0.65528494362E+02  0.11587240795E+03  0.22887675374E+03  0.17300000000E+03 0. -1.
       -6    1    1    2    0  504 -0.13683570209E+02  0.94121197241E+02  0.19694248636E+03  0.27885728034E+03  0.17300000000E+03 0.  1.
        6    1    1    2  502    0  0.90640038134E+02 -0.72938789292E+02  0.27575474727E+03  0.34569547891E+03  0.17300000000E+03 0. -1.
       -6    1    1    2    0  503 -0.81438970938E+01  0.44346086414E+02 -0.34960052347E+03  0.39266069889E+03  0.17300000000E+03 0. -1.
</event>
<event>
 6   0  0.4500850E-05  0.4061818E+03  0.7546771E-02  0.1067069E+00
       21   -1    0    0  504  503  0.00000000000E+00  0.00000000000E+00  0.13810820268E+04  0.13810820268E+04  0.00000000000E+00 0.  1.
       21   -1    0    0  502  504  0.00000000000E+00  0.00000000000E+00 -0.22924474017E+03  0.22924474017E+03  0.00000000000E+00 0. -1.
        6    1    1    2  501    0  0.52242646140E+02  0.78209966194E+02  0.43907817894E+03  0.48121174145E+03  0.17300000000E+03 0.  1.
       -6    1    1    2    0  503  0.80746135874E+02  0.65359939999E+02  0.55100943906E+03  0.58679831471E+03  0.17300000000E+03 0.  1.
        6    1    1    2  502    0  0.87734503164E+02 -0.39293073328E+02 -0.84476323273E+01  0.19809505584E+03  0.17300000000E+03 0. -1.
       -6    1    1    2    0  501 -0.22072328518E+03 -0.10427683286E+03  0.17019730094E+03  0.34422165495E+03  0.17300000000E+03 0.  1.
</event>
<event>
 6   0  0.4500850E-05  0.2332714E+03  0.7546771E-02  0.1124629E+00
       21   -1    0    0  504  503  0.00000000000E+00  0.00000000000E+00  0.32075119030E+03  0.32075119030E+03  0.00000000000E+00 0. -1.
       21   -1    0    0  502  504  0.00000000000E+00  0.00000000000E+00 -0.25234110493E+04  0.25234110493E+04  0.00000000000E+00 0.  1.
        6    1    1    2  501    0 -0.14528941140E+03 -0.17588011006E+02 -0.56499448524E+01  0.22666996509E+03  0.17300000000E+03 0. -1.
       -6    1    1    2    0  503  0.19694527817E+03  0.12891058214E+02 -0.37131138456E+01  0.26248125493E+03  0.17300000000E+03 0. -1.
        6    1    1    2  502    0 -0.40808220511E+02 -0.13688009637E+03 -0.21009565728E+04  0.21129006111E+04  0.17300000000E+03 0.  1.
       -6    1    1    2    0  501 -0.10847646264E+02  0.14157704917E+03 -0.92340227526E+02  0.24211040849E+03  0.17300000000E+03 0.  1.
</event>
<event>
 6   0  0.4500850E-05  0.2494922E+03  0.7546771E-02  0.1119121E+00
       21   -1    0    0  502  503  0.00000000000E+00  0.00000000000E+00  0.28886991598E+03  0.28886991598E+03  0.00000000000E+00 0. -1.
       21   -1    0    0  501  504  0.00000000000E+00  0.00000000000E+00 -0.83792262245E+03  0.83792262245E+03  0.00000000000E+00 0.  1.
        6    1    1    2  501    0  0.41587337514E+02 -0.17395378874E+03 -0.11074300277E+03  0.27236453499E+03  0.17300000000E+03 0. -1.
       -6    1    1    2    0  503  0.47268121553E+02  0.18368292264E+03 -0.21332800106E+03  0.33378365361E+03  0.17300000000E+03 0. -1.
        6    1    1    2  502    0  0.54349815171E+02 -0.11965934584E+03 -0.79429208183E+02  0.23132284921E+03  0.17300000000E+03 0. -1.
       -6    1    1    2    0  504 -0.14320527424E+03  0.10993021195E+03 -0.14555249446E+03  0.28932150060E+03  0.17300000000E+03 0.  1.
</event>
<event>
 6   0  0.4500850E-05  0.2693153E+03  0.7546771E-02  0.1112099E+00
       21   -1    0    0  501  503  0.00000000000E+00  0.00000000000E+00  0.66575124210E+03  0.66575124210E+03  0.00000000000E+00 0. -1.
       21   -1    0    0  502  504  0.00000000000E+00  0.00000000000E+00 -0.10137771509E+04  0.10137771509E+04  0.00000000000E+00 0. -1.
        6    1    1    2  501    0 -0.62180011902E+02 -0.48241608812E+02  0.39638089649E+03  0.43959119850E+03  0.17300000000E+03 0. -1.
       -6    1    1    2    0  504  0.29171280297E+02  0.32256711204E+03 -0.53209641194E+03  0.64649524125E+03  0.17300000000E+03 0. -1.
        6    1    1    2  502    0  0.13936702501E+03 -0.11717495060E+03  0.13459205714E+02  0.25152194124E+03  0.17300000000E+03 0.  1.
       -6    1    1    2    0  503 -0.10635829340E+03 -0.15715055263E+03 -0.22576959910E+03  0.34192001206E+03  0.17300000000E+03 0.  1.
</event>
<event>
 6   0  0.4500850E-05  0.2621091E+03  0.7546771E-02  0.1116501E+00
       21   -1    0    0  501  503  0.00000000000E+00  0.00000000000E+00  0.17887207500E+04  0.17887207500E+04  0.00000000000E+00 0.  1.
       21   -1    0    0  502  504  0.00000000000E+00  0.00000000000E+00 -0.24691094052E+03  0.24691094052E+03  0.00000000000E+00 0. -1.
        6    1    1    2  501    0 -0.14134906629E+02  0.77144497252E+02  0.32968261838E+03  0.38048744776E+03  0.17300000000E+03 0.  1.
       -6    1    1    2    0  503 -0.51375450462E+02 -0.17685530998E+03 -0.35149369653E+02  0.25511118314E+03  0.17300000000E+03 0. -1.
        6    1    1    2  502    0 -0.17291213236E+03  0.32444636185E+02  0.22460564193E+03  0.33365843960E+03  0.17300000000E+03 0.  1.
       -6    1    1    2    0  504  0.23842248945E+03  0.67266176544E+02  0.10226709188E+04  0.10663746200E+04  0.17300000000E+03 0.  1.
</event>
<event>
 6   0  0.4500850E-05  0.4799885E+03  0.7546771E-02  0.1044177E+00
       21   -1    0    0  502  503  0.00000000000E+00  0.00000000000E+00  0.41478468394E+03  0.41478468394E+03  0.00000000000E+00 0. -1.
       21   -1    0    0  501  504  0.00000000000E+00  0.00000000000E+00 -0.16998100273E+04  0.16998100273E+04  0.00000000000E+00 0.  1.
        6    1    1    2  501    0 -0.10494019136E+03 -0.10692863924E+03 -0.10249548763E+04  0.10501941135E+04  0.17300000000E+03 0.  1.
       -6    1    1    2    0  504 -0.29672491519E+02  0.87713494906E+02  0.48785891015E+01  0.19628274140E+03  0.17300000000E+03 0.  1.
        6    1    1    2  502    0  0.10743125719E+03  0.18828611449E+03  0.20092695017E+03  0.34248178818E+03  0.17300000000E+03 0. -1.
       -6    1    1    2    0  503  0.27181425688E+02 -0.16907097016E+03 -0.46587600635E+03  0.52563606816E+03  0.17300000000E+03 0. -1.
</event>
<event>
 6   0  0.4500850E-05  0.4466336E+03  0.7546771E-02  0.1028739E+00
        1   -1    0    0  503    0  0.00000000000E+00  0.00000000000E+00  0.34479410813E+03  0.34479410813E+03  0.00000000000E+00 0.  1.
       -1   -1    0    0    0  501  0.00000000000E+00  0.00000000000E+00 -0.79464430831E+03  0.79464430831E+03  0.00000000000E+00 0. -1.
        6    1    1    2  502    0 -0.86085030927E+02  0.23947325438E+02 -0.38996230158E+03  0.43587120070E+03  0.17300000000E+03 0.  1.
       -6    1    1    2    0  502  0.11511110872E+03 -0.42749065737E+02 -0.54165573918E+02  0.21895424036E+03  0.17300000000E+03 0. -1.
        6    1    1    2  503    0  0.51015973204E+02 -0.77487264244E+02  0.12640784912E+03  0.23348415356E+03  0.17300000000E+03 0. -1.
       -6    1    1    2    0  501 -0.80042050994E+02  0.96289004542E+02 -0.13213017380E+03  0.25112882183E+03  0.17300000000E+03 0.  1.
</event>
<event>
 6   0  0.4500850E-05  0.2559621E+03  0.7546771E-02  0.1118671E+00
       21   -1    0    0  502  503  0.00000000000E+00  0.00000000000E+00  0.25389096173E+04  0.25389096173E+04  0.00000000000E+00 0. -1.
       21   -1    0    0  501  504  0.00000000000E+00  0.00000000000E+00 -0.17717308754E+03  0.17717308754E+03  0.00000000000E+00 0. -1.
        6    1    1    2  501    0 -0.92476654823E+01  0.54054458612E+02  0.69595796804E+03  0.71923146281E+03  0.17300000000E+03 0.  1.
       -6    1    1    2    0  503 -0.25213253506E+03  0.18945303507E+02  0.23659551521E+03  0.38708678301E+03  0.17300000000E+03 0.  1.
        6    1    1    2  502    0  0.92329250233E+02  0.84369453043E+02  0.12543037926E+04  0.12723403237E+04  0.17300000000E+03 0. -1.
       -6    1    1    2    0  504  0.16905095031E+03 -0.15736921516E+03  0.17487925389E+03  0.33742413536E+03  0.17300000000E+03 0. -1.
</event>
<event>
 6   0  0.4500850E-05  0.3219432E+03  0.7546771E-02  0.1077238E+00
       21   -1    0    0  501  503  0.00000000000E+00  0.00000000000E+00  0.10834014758E+03  0.10834014758E+03  0.00000000000E+00 0. -1.
       21   -1    0    0  502  504  0.00000000000E+00  0.00000000000E+00 -0.21990940895E+04  0.21990940895E+04  0.00000000000E+00 0.  1.
        6    1    1    2  501    0  0.70584977982E+01  0.48357839486E+02 -0.38360789279E+03  0.42364173360E+03  0.17300000000E+03 0. -1.
       -6    1    1    2    0  503 -0.68520522383E+02  0.82317987448E+02 -0.35807854230E+03  0.41185016147E+03  0.17300000000E+03 0. -1.
        6    1    1    2  502    0 -0.15962459577E+03 -0.11412708537E+03 -0.93866463387E+03  0.97443588710E+03  0.17300000000E+03 0.  1.
       -6    1    1    2    0  504  0.22108662035E+03 -0.16548741565E+02 -0.41040287292E+03  0.49750645488E+03  0.17300000000E+03 0. -1.
</event>
<event>
 6   0  0.4500850E-05  0.2377370E+03  0.7546771E-02  0.1122768E+00
       21   -1    0    0  502  503  0.00000000000E+00  0.00000000000E+00  0.79879028561E+03  0.79879028561E+03  0.00000000000E+00 0.  1.
       21   -1    0    0  501  504  0.00000000000E+00  0.00000000000E+00 -0.58058708818E+03  0.58058708818E+03  0.00000000000E+00 0.  1.
        6    1    1    2  501    0 -0.49598027753E+02 -0.32938798806E+01  0.27073788672E+03  0.32511354525E+03  0.17300000000E+03 0.  1.
       -6    1    1    2    0  504  0.26593921914E+03  0.52339318148E+02  0.24927086746E+03  0.40685137073E+03  0.17300000000E+03 0.  1.
        6    1    1    2  502    0 -0.57934888120E+01  0.20738802115E+02  0.64214317870E+02  0.18578520136E+03  0.17300000000E+03 0.  1.
       -6    1    1    2    0  503 -0.21054770258E+03 -0.69784240383E+02 -0.36601987463E+03  0.46162725644E+03  0.17300000000E+03 0.  1.
</event>
<event>
 6   0  0.4500850E-05  0.4435109E+03  0.7546771E-02  0.1053537E+00
       21   -1    0    0  502  503  0.00000000000E+00  0.00000000000E+00  0.11368034197E+04  0.11368034197E+04  0.00000000000E+00 0.  1.
       21   -1    0    0  501  504  0.00000000000E+00  0.00000000000E+00 -0.62042680170E+03  0.62042680170E+03  0.00000000000E+00 0.  1.
        6    1    1    2  501    0 -0.14931527115E+03  0.59944772482E+02 -0.26075248409E+03  0.35186543437E+03  0.17300000000E+03 0.  1.
       -6    1    1    2    0  504  0.46105529269E+02 -0.15774212492E+03  0.30701538398E+03  0.38883896898E+03  0.17300000000E+03 0. -1.
        6    1    1    2  502    0  0.13470047291E+03 -0.34619039348E+02  0.67820861425E+03  0.71360957093E+03  0.17300000000E+03 0.  1.
       -6    1    1    2    0  503 -0.31490731019E+02  0.13241639178E+03 -0.20809489615E+03  0.30291624710E+03  0.17300000000E+03 0.  1.
</event>
<event>
 6   0  0.4500850E-05  0.2290805E+03  0.7546771E-02  0.1127562E+00
       21   -1    0    0  502  503  0.00000000000E+00  0.00000000000E+00  0.39818014656E+03  0.39818014656E+03  0.00000000000E+00 0. -1.
       21   -1    0    0  503  504  0.00000000000E+00  0.00000000000E+00 -0.67734908743E+03  0.67734908743E+03  0.00000000000E+00 0.  1.
        6    1    1    2  501    0  0.11873345299E+03  0.36880558580E+02 -0.16012739846E+03  0.26651002270E+03  0.17300000000E+03 0.  1.
       -6    1    1    2    0  501 -0.11491815196E+03  0.13750283175E+03  0.78296467414E+02  0.26109873075E+03  0.17300000000E+03 0. -1.
        6    1    1    2  502    0 -0.10138628463E+03 -0.32112503619E+02  0.40367418381E+02  0.20704811051E+03  0.17300000000E+03 0.  1.
       -6    1    1    2    0  504  0.97570983599E+02 -0.14227088671E+03 -0.23770542820E+03  0.34087237002E+03  0.17300000000E+03 0. -1.
</event>
<event>
 6   0  0.4500850E-05  0.2601157E+03  0.7546771E-02  0.1113221E+00
       21   -1    0    0  502  503  0.00000000000E+00  0.00000000000E+00  0.10716832727E+04  0.10716832727E+04  0.00000000000E+00 0.  1.
       21   -1    0    0  501  504  0.00000000000E+00  0.00000000000E+00 -0.70648171886E+03  0.70648171886E+03  0.00000000000E+00 0.  1.
        6    1    1    2  501    0  0.18489923222E+02  0.30567848888E+03 -0.34516636584E+03  0.49279816957E+03  0.17300000000E+03 0.  1.
       -6    1    1    2    0  504 -0.16892148548E+03 -0.25529809357E+03  0.49800974136E+03  0.60963455227E+03  0.17300000000E+03 0.  1.
        6    1    1    2  502    0  0.13087185232E+03  0.16136719105E+02  0.37160423933E+03  0.43058860427E+03  0.17300000000E+03 0.  1.
       -6    1    1    2    0  503  0.19559709944E+02 -0.66517114412E+02 -0.15924606100E+03  0.24514366545E+03  0.17300000000E+03 0.  1.
</event>
<event>
 6   0  0.4500850E-05  0.4499448E+03  0.7546771E-02  0.1051703E+00
       21   -1    0    0  502  503  0.00000000000E+00  0.00000000000E+00  0.84732076497E+03  0.84732076497E+03  0.00000000000E+00 0. -1.
       21   -1    0    0  503  504  0.00000000000E+00  0.00000000000E+00 -0.74595618262E+03  0.74595618262E+03  0.00000000000E+00 0. -1.
        6    1    1    2  501    0  0.11257238760E+03  0.86900026722E+02 -0.10565385010E+03  0.24762046187E+03  0.17300000000E+03 0.  1.
       -6    1    1    2    0  504 -0.25560800617E+03  0.19337737075E+02 -0.10757789803E+03  0.32743152725E+03  0.17300000000E+03 0. -1.
        6    1    1    2  502    0 -0.13867456114E+03  0.33513571872E+03  0.22189468192E+03  0.45903467596E+03  0.17300000000E+03 0.  1.
       -6    1    1    2    0  501  0.28171017971E+03 -0.44137348252E+03  0.92701648557E+02  0.55919028252E+03  0.17300000000E+03 0. -1.
</event>
<event>
 6   0  0.4500850E-05  0.6517909E+03  0.7546771E-02  0.9812625E-01
       21   -1    0    0  502  503  0.00000000000E+00  0.00000000000E+00  0.83369906430E+03  0.83369906430E+03  0.00000000000E+00 0. -1.
       21   -1    0    0  501  504  0.00000000000E+00  0.00000000000E+00 -0.53355167155E+03  0.53355167155E+03  0.00000000000E+00 0.  1.
        6    1    1    2  501    0 -0.28523225043E+03 -0.69236924622E+02  0.14365808460E+03  0.36975374736E+03  0.17300000000E+03 0. -1.
       -6    1    1    2    0  504  0.25826157274E+03  0.36930170350E+02  0.63420413269E+02  0.31939634665E+03  0.17300000000E+03 0. -1.
        6    1    1    2  502    0  0.24330688517E+03  0.11257332078E+03 -0.96074166042E+02  0.33321200204E+03  0.17300000000E+03 0.  1.
       -6    1    1    2    0  503 -0.21633620748E+03 -0.80266566504E+02  0.18914306092E+03  0.34488863980E+03  0.17300000000E+03 0. -1.
</event>
<event>
 6   0  0.4500850E-05  0.5395841E+03  0.7546771E-02  0.1037649E+00
       21   -1    0    0  502  503  0.00000000000E+00  0.00000000000E+00  0.72817716770E+03  0.72817716770E+03  0.00000000000E+00 0.  1.
       21   -1    0    0  501  504  0.00000000000E+00  0.00000000000E+00 -0.45636055567E+03  0.45636055567E+03  0.00000000000E+00 0.  1.
        6    1    1    2  501    0  0.77021058028E+02 -0.45335340501E+02 -0.43443905512E+02  0.19950917123E+03  0.17300000000E+03 0.  1.
       -6    1    1    2    0  503  0.56909518113E+02 -0.30807840009E+03  0.45063042100E+02  0.36070856882E+03  0.17300000000E+03 0.  1.
        6    1    1    2  502    0 -0.14550081061E+02  0.63724821523E+02  0.16616672687E+02  0.18568164031E+03  0.17300000000E+03 0. -1.
       -6    1    1    2    0  504 -0.11938049508E+03  0.28968891907E+03  0.25358080275E+03  0.43863834301E+03  0.17300000000E+03 0.  1.
</event>
<event>
 6   0  0.4500850E-05  0.3536340E+03  0.7546771E-02  0.1082426E+00
       21   -1    0    0  501  503  0.00000000000E+00  0.00000000000E+00  0.23922476643E+04  0.23922476643E+04  0.00000000000E+00 0.  1.
       21   -1    0    0  502  504  0.00000000000E+00  0.00000000000E+00 -0.70368573365E+03  0.70368573365E+03  0.00000000000E+00 0.  1.
        6    1    1    2  501    0 -0.59305123463E+02  0.17916331113E+03 -0.16253427150E+03  0.30325398453E+03  0.17300000000E+03 0.  1.
       -6    1    1    2    0  503  0.24787734850E+03 -0.57624993064E+02 -0.37678755458E+02  0.31002017408E+03  0.17300000000E+03 0.  1.
        6    1    1    2  502    0 -0.27444205506E+03 -0.16269147109E+03  0.21357931153E+04  0.21664090537E+04  0.17300000000E+03 0.  1.
       -6    1    1    2    0  504  0.85869830024E+02  0.41153153024E+02 -0.24701815770E+03  0.31625018569E+03  0.17300000000E+03 0. -1.
</event>
<event>
 6   0  0.4500850E-05  0.8826051E+03  0.7546771E-02  0.9652570E-01
       21   -1    0    0  502  503  0.00000000000E+00  0.00000000000E+00  0.17190400109E+04  0.17190400109E+04  0.00000000000E+00 0. -1.
       21   -1    0    0  501  504  0.00000000000E+00  0.00000000000E+00 -0.34597642047E+04  0.34597642047E+04  0.00000000000E+00 0. -1.
        6    1    1    2  501    0  0.42661806388E+03  0.23095593898E+01  0.11754932575E+04  0.12624269107E+04  0.17300000000E+03 0. -1.
       -6    1    1    2    0  503  0.33279861577E+03  0.42640139492E+02  0.35232558853E+03  0.51636752462E+03  0.17300000000E+03 0. -1.
        6    1    1    2  502    0 -0.40368518221E+03  0.13379972374E+03 -0.11662106001E+04  0.12533316625E+04  0.17300000000E+03 0. -1.
       -6    1    1    2    0  504 -0.35573149744E+03 -0.17874942263E+03 -0.21023324397E+04  0.21466781178E+04  0.17300000000E+03 0. -1.
</event>
<event>
 6   0  0.4500850E-05  0.2519950E+03  0.7546771E-02  0.1113114E+00
       21   -1    0    0  502  503  0.00000000000E+00  0.00000000000E+00  0.17971764684E+04  0.17971764684E+04  0.00000000000E+00 0.  1.
       21   -1    0    0  501  504  0.00000000000E+00  0.00000000000E+00 -0.14023459891E+04  0.14023459891E+04  0.00000000000E+00 0. -1.
        6    1    1    2  501    0 -0.61596311065E+02  0.52765848761E+02  0.15924096508E+03  0.24872680855E+03  0.17300000000E+03 0.  1.
       -6    1    1    2    0  504  0.25502832457E+03  0.13073593947E+03  0.23271738594E+03  0.40769806711E+03  0.17300000000E+03 0.  1.
        6    1    1    2  502    0  0.11171433045E+03 -0.66241229812E+02  0.12364683614E+04  0.12552493780E+04  0.17300000000E+03 0. -1.
       -6    1    1    2    0  503 -0.30514634396E+03 -0.11726055842E+03 -0.12335962331E+04  0.12878482038E+04  0.17300000000E+03 0. -1.
</event>
<event>
 6   0  0.4500850E-05  0.2760659E+03  0.7546771E-02  0.1108539E+00
       21   -1    0    0  502  503  0.00000000000E+00  0.00000000000E+00  0.44196094510E+03  0.44196094510E+03  0.00000000000E+00 0. -1.
       21   -1    0    0  501  504  0.00000000000E+00  0.00000000000E+00 -0.13810952581E+04  0.13810952581E+04  0.00000000000E+00 0.  1.
        6    1    1    2  501    0 -0.14996911872E+03 -0.16757013282E+03  0.45159210242E+02  0.28729573657E+03  0.17300000000E+03 0.  1.
       -6    1    1    2    0  504  0.11022092885E+03  0.20643566326E+02 -0.68939979845E+03  0.71956646121E+03  0.17300000000E+03 0.  1.
        6    1    1    2  502    0 -0.57460817063E+02  0.29815288633E+03  0.86900356184E+02  0.36010770754E+03  0.17300000000E+03 0. -1.
       -6    1    1    2    0  503  0.97209006938E+02 -0.15122631984E+03 -0.38179408099E+03  0.45608629788E+03  0.17300000000E+03 0.  1.
</event>
<event>
 6   0  0.4500850E-05  0.2615300E+03  0.7546771E-02  0.1109438E+00
       21   -1    0    0  502  503  0.00000000000E+00  0.00000000000E+00  0.73961584979E+03  0.73961584979E+03  0.00000000000E+00 0. -1.
       21   -1    0    0  501  504  0.00000000000E+00  0.00000000000E+00 -0.59027356306E+03  0.59027356306E+03  0.00000000000E+00 0. -1.
        6    1    1    2  501    0  0.84813364901E+02  0.26034653108E+03 -0.14180453608E+02  0.32419702092E+03  0.17300000000E+03 0. -1.
       -6    1    1    2    0  503 -0.11079514600E+03  0.23625655532E+02  0.36519258115E+03  0.41967649124E+03  0.17300000000E+03 0.  1.
        6    1    1    2  502    0 -0.46384146847E+02 -0.30082802698E+03 -0.72098149656E+02  0.35745787735E+03  0.17300000000E+03 0. -1.
       -6    1    1    2    0  504  0.72365927942E+02  0.16855840370E+02 -0.12957169116E+03  0.22855802334E+03  0.17300000000E+03 0.  1.
</event>
<event>
 6   0  0.4500850E-05  0.3842248E+03  0.7546771E-02  0.1071554E+00
       21   -1    0    0  502  503  0.00000000000E+00  0.00000000000E+00  0.13336484305E+04  0.13336484305E+04  0.00000000000E+00 0.  1.
       21   -1    0    0  501  504  0.00000000000E+00  0.00000000000E+00 -0.91450949789E+03  0.91450949789E+03  0.00000000000E+00 0.  1.
        6    1    1    2  501    0  0.84028823859E+02  0.29128698908E+02 -0.37579091142E+03  0.42315143087E+03  0.17300000000E+03 0.  1.
       -6    1    1    2    0  503  0.64088744669E+02  0.31372865048E+02 -0.45089869064E+03  0.48819079577E+03  0.17300000000E+03 0.  1.
        6    1    1    2  502    0 -0.13218085921E+03 -0.17248648909E+03  0.73724427824E+03  0.78783341783E+03  0.17300000000E+03 0.  1.
       -6    1    1    2    0  504 -0.15936709322E+02  0.11198492514E+03  0.50858425644E+03  0.54898228392E+03  0.17300000000E+03 0. -1.
</event>
<event>
 6   0  0.4500850E-05  0.3805560E+03  0.7546771E-02  0.1071133E+00
       21   -1    0    0  501  503  0.00000000000E+00  0.00000000000E+00  0.44654889795E+04  0.44654889795E+04  0.00000000000E+00 0. -1.
       21   -1    0    0  503  504  0.00000000000E+00  0.00000000000E+00 -0.31943415927E+03  0.31943415927E+03  0.00000000000E+00 0.  1.
        6    1    1    2  501    0 -0.24482099399E+03  0.44503006948E+02  0.22496134855E+04  0.22699356095E+04  0.17300000000E+03 0. -1.
       -6    1    1    2    0  504  0.13948575499E+01  0.12798831891E+03  0.13717678785E+04  0.13885456665E+04  0.17300000000E+03 0. -1.
        6    1    1    2  502    0 -0.23877220501E+02 -0.36562011536E+03 -0.83130216475E+02  0.41362763847E+03  0.17300000000E+03 0.  1.
       -6    1    1    2    0  502  0.26730335694E+03  0.19312878950E+03  0.60780367262E+03  0.71281422433E+03  0.17300000000E+03 0. -1.
</event>
<event>
 6   0  0.4500850E-05  0.4186201E+03  0.7546771E-02  0.1041254E+00
        2   -1    0    0  502    0  0.00000000000E+00  0.00000000000E+00  0.80018806434E+03  0.80018806434E+03  0.00000000000E+00 0.  1.
       -2   -1    0    0    0  501  0.00000000000E+00  0.00000000000E+00 -0.36679151586E+03  0.36679151586E+03  0.00000000000E+00 0. -1.
        6    1    1    2  502    0 -0.69684275071E+02  0.22789662657E+02  0.13765116926E+03  0.23292082628E+03  0.17300000000E+03 0.  1.
       -6    1    1    2    0  503 -0.15250701722E+02 -0.51104737763E+02  0.48206379053E+03  0.51493570110E+03  0.17300000000E+03 0.  1.
        6    1    1    2  503    0 -0.12002396164E+02  0.26656966907E+02 -0.10719187908E+03  0.20560581300E+03  0.17300000000E+03 0. -1.
       -6    1    1    2    0  501  0.96937372957E+02  0.16581081996E+01 -0.79126532237E+02  0.21351723982E+03  0.17300000000E+03 0.  1.
</event>
<event>
 6   0  0.4500850E-05  0.3571959E+03  0.7546771E-02  0.1060349E+00
       21   -1    0    0  504  503  0.00000000000E+00  0.00000000000E+00  0.10597871444E+04  0.10597871444E+04  0.00000000000E+00 0.  1.
       21   -1    0    0  501  504  0.00000000000E+00  0.00000000000E+00 -0.61993691709E+03  0.61993691709E+03  0.00000000000E+00 0. -1.
        6    1    1    2  501    0 -0.35780691910E+03  0.10672110946E+03 -0.13771328649E+03  0.43394600567E+03  0.17300000000E+03 0. -1.
       -6    1    1    2    0  502 -0.62612443393E+01 -0.22697173332E+03  0.26637780811E+03  0.39043758472E+03  0.17300000000E+03 0.  1.
        6    1    1    2  502    0 -0.34792234284E+01  0.26980461566E+03 -0.28659984179E+01  0.32053681470E+03  0.17300000000E+03 0. -1.
       -6    1    1    2    0  503  0.36754738687E+03 -0.14955399181E+03  0.31405170411E+03  0.53480365641E+03  0.17300000000E+03 0.  1.
</event>
<event>
 6   0  0.4500850E-05  0.2322907E+03  0.7546771E-02  0.1130680E+00
       21   -1    0    0  502  503  0.00000000000E+00  0.00000000000E+00  0.63189454028E+03  0.63189454028E+03  0.00000000000E+00 0. -1.
       21   -1    0    0  503  504  0.00000000000E+00  0.00000000000E+00 -0.54547156536E+03  0.54547156536E+03  0.00000000000E+00 0. -1.
        6    1    1    2  501    0 -0.23677799667E+02 -0.29758923077E+02  0.16448435455E+02  0.17789261572E+03  0.17300000000E+03 0.  1.
       -6    1    1    2    0  501  0.88616849809E+02 -0.60944567922E+02 -0.85992473328E+00  0.20370794265E+03  0.17300000000E+03 0. -1.
        6    1    1    2  502    0 -0.15781678730E+03 -0.91711361907E+02  0.33537056104E+03  0.41918912852E+03  0.17300000000E+03 0. -1.
       -6    1    1    2    0  504  0.92877737159E+02  0.18241485291E+03 -0.26453609684E+03  0.37657641874E+03  0.17300000000E+03 0. -1.
</event>
<event>
 6   0  0.4500850E-05  0.2816733E+03  0.7546771E-02  0.1099359E+00
       21   -1    0    0  501  503  0.00000000000E+00  0.00000000000E+00  0.21692520334E+03  0.21692520334E+03  0.00000000000E+00 0.  1.
       21   -1    0    0  502  504  0.00000000000E+00  0.00000000000E+00 -0.16062961135E+04  0.16062961135E+04  0.00000000000E+00 0.  1.
        6    1    1    2  501    0 -0.16784957387E+03  0.22623811276E+03 -0.33602339250E+03  0.47137870489E+03  0.17300000000E+03 0.  1.
       -6    1    1    2    0  503  0.11853844822E+03  0.16569303847E+03 -0.38809969719E+03  0.47122809940E+03  0.17300000000E+03 0.  1.
        6    1    1    2  502    0  0.11543402394E+03 -0.19623326333E+03 -0.46112118955E+03  0.54258110820E+03  0.17300000000E+03 0.  1.
       -6    1    1    2    0  504 -0.66122898298E+02 -0.19569788789E+03 -0.20412663090E+03  0.33803340433E+03  0.17300000000E+03 0.  1.
</event>
<event>
 6   0  0.4500850E-05  0.2930649E+03  0.7546771E-02  0.1095358E+00
       21   -1    0    0  502  503  0.00000000000E+00  0.00000000000E+00  0.13651643870E+04  0.13651643870E+04  0.00000000000E+00 0.  1.
       21   -1    0    0  503  504  0.00000000000E+00  0.00000000000E+00 -0.12791509027E+04  0.12791509027E+04  0.00000000000E+00 0.  1.
        6    1    1    2  501    0  0.96230924949E+02 -0.27971060179E+02 -0.98971412226E+03  0.10097058061E+04  0.17300000000E+03 0.  1.
       -6    1    1    2    0  501  0.81793693215E+02 -0.25772658162E+03  0.52284279231E+03  0.61351999527E+03  0.17300000000E+03 0.  1.
        6    1    1    2  502    0  0.14927885658E+03  0.44675699950E+02  0.52983243584E+03  0.57873267167E+03  0.17300000000E+03 0.  1.
       -6    1    1    2    0  504 -0.32730347474E+03  0.24102194185E+03  0.23052378402E+02  0.44235681659E+03  0.17300000000E+03 0.  1.
</event>
<event>
 6   0  0.4500850E-05  0.2060567E+03  0.7546771E-02  0.1149803E+00
       21   -1    0    0  502  503  0.00000000000E+00  0.00000000000E+00  0.12719253936E+04  0.12719253936E+04  0.00000000000E+00 0. -1.
       21   -1    0    0  503  504  0.00000000000E+00  0.00000000000E+00 -0.21548593109E+03  0.21548593109E+03  0.00000000000E+00 0.  1.
        6    1    1    2  501    0  0.56368385040E+02  0.69810139087E+02  0.77409529974E+02  0.20969522093E+03  0.17300000000E+03 0.  1.
       -6    1    1    2    0  504 -0.13955132561E+03 -0.28616549367E+02  0.18995344653E+02  0.22490731979E+03  0.17300000000E+03 0. -1.
        6    1    1    2  502    0  0.46707858315E+02  0.35104508232E+02  0.73157996335E+03  0.75402400048E+03  0.17300000000E+03 0. -1.
       -6    1    1    2    0  501  0.36475082257E+02 -0.76298097952E+02  0.22845462458E+03  0.29878478353E+03  0.17300000000E+03 0. -1.
</event>
<event>
 6   0  0.4500850E-05  0.5092047E+03  0.7546771E-02  0.1011404E+00
        1   -1    0    0  502    0  0.00000000000E+00  0.00000000000E+00  0.72381836615E+03  0.72381836615E+03  0.00000000000E+00 0.  1.
       -1   -1    0    0    0  501  0.00000000000E+00  0.00000000000E+00 -0.64055427517E+03  0.64055427517E+03  0.00000000000E+00 0. -1.
        6    1    1    2  502    0 -0.62758124795E+02 -0.14912875943E+02 -0.23962176009E+03  0.30250382478E+03  0.17300000000E+03 0. -1.
       -6    1    1    2    0  503 -0.28514114025E+02  0.74421409641E+02 -0.16348733212E+03  0.25101535545E+03  0.17300000000E+03 0. -1.
        6    1    1    2  503    0 -0.41132505752E+02  0.20029216328E+03  0.75754655769E+02  0.27834619015E+03  0.17300000000E+03 0. -1.
       -6    1    1    2    0  501  0.13240474457E+03 -0.25980069698E+03  0.41061852742E+03  0.53250727093E+03  0.17300000000E+03 0.  1.
</event>
<event>
 6   0  0.4500850E-05  0.2208995E+03  0.7546771E-02  0.1134391E+00
       21   -1    0    0  501  503  0.00000000000E+00  0.00000000000E+00  0.16888812979E+03  0.16888812979E+03  0.00000000000E+00 0.  1.
       21   -1    0    0  502  504  0.00000000000E+00  0.00000000000E+00 -0.18378952378E+04  0.18378952378E+04  0.00000000000E+00 0.  1.
        6    1    1    2  501    0 -0.11896610947E+03 -0.19749391618E+03 -0.86214943842E+02  0.30086342196E+03  0.17300000000E+03 0.  1.
       -6    1    1    2    0  504  0.30173308682E+02 -0.39093234795E+02 -0.39552754698E+03  0.43452243898E+03  0.17300000000E+03 0. -1.
        6    1    1    2  502    0  0.38409886168E+02  0.20008753984E+03 -0.62227170803E+03  0.67724546626E+03  0.17300000000E+03 0.  1.
       -6    1    1    2    0  503  0.50382914616E+02  0.36499611138E+02 -0.56499290916E+03  0.59415204039E+03  0.17300000000E+03 0.  1.
</event>
<event>
 6   0  0.4500850E-05  0.2031966E+03  0.7546771E-02  0.1151357E+00
       21   -1    0    0  501  503  0.00000000000E+00  0.00000000000E+00  0.19410602751E+04  0.19410602751E+04  0.00000000000E+00 0.  1.
       21   -1    0    0  503  504  0.00000000000E+00  0.00000000000E+00 -0.12425656531E+03  0.12425656531E+03  0.00000000000E+00 0.  1.
        6    1    1    2  501    0  0.10099472334E+01 -0.28802222675E+02  0.95454707833E+03  0.97052548280E+03  0.17300000000E+03 0.  1.
       -6    1    1    2    0  504 -0.11517797317E+03 -0.46721253164E+02  0.16809483616E+03  0.27135532968E+03  0.17300000000E+03 0. -1.
        6    1    1    2  502    0  0.57951715728E+02 -0.59527145338E+02  0.18692413561E+03  0.26790206207E+03  0.17300000000E+03 0.  1.
       -6    1    1    2    0  502  0.56216310205E+02  0.13505062118E+03  0.50723765967E+03  0.55553396584E+03  0.17300000000E+03 0.  1.
</event>
<event>
 6   0  0.4500850E-05  0.1971677E+03  0.7546771E-02  0.1155285E+00
       21   -1    0    0  502  503  0.00000000000E+00  0.00000000000E+00  0.77219894685E+03  0.77219894685E+03  0.00000000000E+00 0.  1.
       21   -1    0    0  501  504  0.00000000000E+00  0.00000000000E+00 -0.99231911721E+03  0.99231911721E+03  0.00000000000E+00 0.  1.
        6    1    1    2  501    0  0.92921403210E+02 -0.45268193901E+02  0.51350090936E+03  0.55163011200E+03  0.17300000000E+03 0.  1.
       -6    1    1    2    0  503 -0.23154079891E+02  0.88642853058E+02  0.89464765722E+02  0.21523617521E+03  0.17300000000E+03 0.  1.
        6    1    1    2  502    0 -0.70295339948E+01 -0.59695624056E+02 -0.78875967365E+03  0.80974304854E+03  0.17300000000E+03 0.  1.
       -6    1    1    2    0  504 -0.62737789324E+02  0.16320964899E+02 -0.34326171785E+02  0.18790872831E+03  0.17300000000E+03 0.  1.
</event>
<event>
 6   0  0.4500850E-05  0.4154094E+03  0.7546771E-02  0.1047838E+00
       21   -1    0    0  504  503  0.00000000000E+00  0.00000000000E+00  0.34546895483E+03  0.34546895483E+03  0.00000000000E+00 0. -1.
       21   -1    0    0  501  504  0.00000000000E+00  0.00000000000E+00 -0.22341660266E+04  0.22341660266E+04  0.00000000000E+00 0. -1.
        6    1    1    2  501    0  0.36200695410E+02  0.22750576990E+03 -0.14990125366E+02  0.28848408889E+03  0.17300000000E+03 0. -1.
       -6    1    1    2    0  503  0.90712736138E+02  0.61314294437E+02 -0.15988272607E+02  0.20536033712E+03  0.17300000000E+03 0. -1.
        6    1    1    2  502    0  0.15001860223E+03 -0.14374324195E+03 -0.93993600579E+02  0.28623678584E+03  0.17300000000E+03 0.  1.
       -6    1    1    2    0  502 -0.27693203378E+03 -0.14507682239E+03 -0.17637250732E+04  0.17995537696E+04  0.17300000000E+03 0. -1.
</event>
<event>
 6   0  0.4500850E-05  0.3291174E+03  0.7546771E-02  0.1091806E+00
       21   -1    0    0  502  503  0.00000000000E+00  0.00000000000E+00  0.16139332232E+03  0.16139332232E+03  0.00000000000E+00 0. -1.
       21   -1    0    0  503  504  0.00000000000E+00  0.00000000000E+00 -0.22601004766E+04  0.22601004766E+04  0.00000000000E+00 0. -1.
        6    1    1    2  501    0 -0.35074438086E+03  0.14128968302E+03 -0.87919531788E+03  0.97257277476E+03  0.17300000000E+03 0. -1.
       -6    1    1    2    0  504  0.15366122315E+03 -0.18244456810E+03 -0.80826348299E+03  0.86030032539E+03  0.17300000000E+03 0.  1.
        6    1    1    2  502    0  0.12757353431E+03  0.82246739410E+02 -0.21971273241E+03  0.31818582241E+03  0.17300000000E+03 0.  1.
       -6    1    1    2    0  501  0.69509623405E+02 -0.41091854327E+02 -0.19153562103E+03  0.27043487638E+03  0.17300000000E+03 0. -1.
</event>
<event>
 6   0  0.4500850E-05  0.2127194E+03  0.7546771E-02  0.1142390E+00
       21   -1    0    0  501  503  0.00000000000E+00  0.00000000000E+00  0.20765468350E+03  0.20765468350E+03  0.00000000000E+00 0. -1.
       21   -1    0    0  502  504  0.00000000000E+00  0.00000000000E+00 -0.13009697803E+04  0.13009697803E+04  0.00000000000E+00 0. -1.
        6    1    1    2  501    0 -0.10208551910E+03 -0.11195346062E+03 -0.54734563630E+02  0.23638930393E+03  0.17300000000E+03 0. -1.
       -6    1    1    2    0  503  0.10344006695E+03  0.27051858509E+02 -0.69244009663E+02  0.21483803987E+03  0.17300000000E+03 0. -1.
        6    1    1    2  502    0  0.96476524163E+02  0.79428026813E+00 -0.35889180620E+03  0.40992765112E+03  0.17300000000E+03 0.  1.
       -6    1    1    2    0  504 -0.97831072021E+02  0.84107321846E+02 -0.61044471731E+03  0.64746946888E+03  0.17300000000E+03 0.  1.
</event>
<event>
 6   0  0.4500850E-05  0.6155937E+03  0.7546771E-02  0.9889290E-01
        2   -1    0    0  503    0  0.00000000000E+00  0.00000000000E+00  0.75704957983E+03  0.75704957983E+03  0.00000000000E+00 0. -1.
       -2   -1    0    0    0  501  0.00000000000E+00  0.00000000000E+00 -0.50657534267E+03  0.50657534267E+03  0.00000000000E+00 0.  1.
        6    1    1    2  502    0 -0.60947362002E+02  0.12785742424E+03  0.61489344533E+02  0.23188799313E+03  0.17300000000E+03 0. -1.
       -6    1    1    2    0  502  0.12458978439E+03  0.21974646089E+02  0.15504236845E+03  0.26452341193E+03  0.17300000000E+03 0. -1.
        6    1    1    2  503    0  0.23618243512E+03 -0.70126625371E+02 -0.18173591570E+03  0.35164872999E+03  0.17300000000E+03 0.  1.
       -6    1    1    2    0  501 -0.29982485751E+03 -0.79705444957E+02  0.21567843988E+03  0.41556478744E+03  0.17300000000E+03 0.  1.
</event>
<event>
 6   0  0.4500850E-05  0.8152464E+03  0.7546771E-02  0.9538207E-01
        1   -1    0    0  502    0  0.00000000000E+00  0.00000000000E+00  0.13671918052E+04  0.13671918052E+04  0.00000000000E+00 0.  1.
       -1   -1    0    0    0  501  0.00000000000E+00  0.00000000000E+00 -0.63879666558E+03  0.63879666558E+03  0.00000000000E+00 0. -1.
        6    1    1    2  502    0  0.34472400426E+03 -0.49790220226E+03 -0.13309465059E+03  0.64372698261E+03  0.17300000000E+03 0. -1.
       -6    1    1    2    0  503  0.19878041960E+02  0.58737903290E+02  0.69345084678E+02  0.19642560577E+03  0.17300000000E+03 0. -1.
        6    1    1    2  503    0 -0.43387800105E+03  0.11734917176E+03  0.40832813799E+03  0.63141255624E+03  0.17300000000E+03 0.  1.
       -6    1    1    2    0  501  0.69275954836E+02  0.32181512721E+03  0.38381656759E+03  0.53442332619E+03  0.17300000000E+03 0.  1.
</event>
<event>
 6   0  0.4500850E-05  0.2679877E+03  0.7546771E-02  0.1117284E+00
       21   -1    0    0  502  503  0.00000000000E+00  0.00000000000E+00  0.16082846937E+04  0.16082846937E+04  0.00000000000E+00 0.  1.
       21   -1    0    0  503  504  0.00000000000E+00  0.00000000000E+00 -0.23166441388E+03  0.23166441388E+03  0.00000000000E+00 0. -1.
        6    1    1    2  501    0  0.67976649689E+02 -0.21459975720E+03  0.48033048160E+03  0.55796079813E+03  0.17300000000E+03 0.  1.
       -6    1    1    2    0  504 -0.19189712448E+03 -0.61691981318E+02  0.29793095506E+02  0.26729578276E+03  0.17300000000E+03 0. -1.
        6    1    1    2  502    0 -0.33602554262E+01  0.53407725807E+02  0.51720135482E+03  0.54798715124E+03  0.17300000000E+03 0. -1.
       -6    1    1    2    0  501  0.12728073021E+03  0.22288401272E+03  0.34929534786E+03  0.46670537542E+03  0.17300000000E+03 0. -1.
</event>
<event>
 6   0  0.4500850E-05  0.2410436E+03  0.7546771E-02  0.1119859E+00
       21   -1    0    0  501  503  0.00000000000E+00  0.00000000000E+00  0.14424057133E+04  0.14424057133E+04  0.00000000000E+00 0.  1.
       21   -1    0    0  502  504  0.00000000000E+00  0.00000000000E+00 -0.57529126313E+03  0.57529126313E+03  0.00000000000E+00 0.  1.
        6    1    1    2  501    0  0.28668727366E+01 -0.10772540341E+03 -0.15124052082E+03  0.25380243623E+03  0.17300000000E+03 0.  1.
       -6    1    1    2    0  503  0.42571179787E+02  0.84349366656E+02  0.67606026363E+03  0.70421133267E+03  0.17300000000E+03 0.  1.
        6    1    1    2  502    0 -0.18394614321E+03 -0.23319549704E+03  0.55978307190E+03  0.65688843119E+03  0.17300000000E+03 0.  1.
       -6    1    1    2    0  504  0.13850809069E+03  0.25657153380E+03 -0.21748836454E+03  0.40279477635E+03  0.17300000000E+03 0.  1.
</event>
<event>
 6   0  0.4500850E-05  0.2487649E+03  0.7546771E-02  0.1114708E+00
       21   -1    0    0  501  503  0.00000000000E+00  0.00000000000E+00  0.21051222936E+03  0.21051222936E+03  0.00000000000E+00 0.  1.
       21   -1    0    0  502  504  0.00000000000E+00  0.00000000000E+00 -0.25303819221E+04  0.25303819221E+04  0.00000000000E+00 0.  1.
        6    1    1    2  501    0  0.11917725922E+03 -0.11614617161E+03 -0.64497114685E+03  0.68819323781E+03  0.17300000000E+03 0. -1.
       -6    1    1    2    0  503  0.62941557083E+01  0.14088575162E+03  0.12802772144E+02  0.22356502942E+03  0.17300000000E+03 0.  1.
        6    1    1    2  502    0 -0.77594408834E+02  0.13197815951E+03 -0.15540521352E+03  0.27842217451E+03  0.17300000000E+03 0. -1.
       -6    1    1    2    0  504 -0.47877006091E+02 -0.15671773952E+03 -0.15322961045E+04  0.15507137097E+04  0.17300000000E+03 0.  1.
</event>
<event>
 6   0  0.4500850E-05  0.3986829E+03  0.7546771E-02  0.1050062E+00
       21   -1    0    0  502  503  0.00000000000E+00  0.00000000000E+00  0.17647624139E+03  0.17647624139E+03  0.00000000000E+00 0.  1.
       21   -1    0    0  501  504  0.00000000000E+00  0.00000000000E+00 -0.20542254089E+04  0.20542254089E+04  0.00000000000E+00 0.  1.
        6    1    1    2  501    0 -0.15000964150E+03 -0.29855381757E+03 -0.75225191387E+03  0.84110000384E+03  0.17300000000E+03 0.  1.
       -6    1    1    2    0  503  0.52516824803E+02  0.21928678469E+03 -0.61804948298E+03  0.68026382694E+03  0.17300000000E+03 0.  1.
        6    1    1    2  502    0  0.16286989651E+03  0.14807784489E+03 -0.20021075744E+03  0.34419035246E+03  0.17300000000E+03 0.  1.
       -6    1    1    2    0  504 -0.65377079811E+02 -0.68810812007E+02 -0.30723701321E+03  0.36514746706E+03  0.17300000000E+03 0.  1.
</event>
<event>
 6   0  0.4500850E-05  0.5525018E+03  0.7546771E-02  0.1034165E+00
       21   -1    0    0  502  503  0.00000000000E+00  0.00000000000E+00  0.59291970206E+03  0.59291970206E+03  0.00000000000E+00 0.  1.
       21   -1    0    0  501  504  0.00000000000E+00  0.00000000000E+00 -0.18515560007E+04  0.18515560007E+04  0.00000000000E+00 0. -1.
        6    1    1    2  501    0 -0.84857931887E+02 -0.10209529156E+03 -0.90090665639E+02  0.23594415695E+03  0.17300000000E+03 0. -1.
       -6    1    1    2    0  503  0.51483822925E+03  0.73296637831E+02 -0.48301802804E+03  0.73052461617E+03  0.17300000000E+03 0. -1.
        6    1    1    2  502    0 -0.52708579635E+03  0.60446210483E+02  0.18243439166E+03  0.58709836342E+03  0.17300000000E+03 0.  1.
       -6    1    1    2    0  504  0.97105498985E+02 -0.31647556759E+02 -0.86796199661E+03  0.89090856621E+03  0.17300000000E+03 0. -1.
</event>
<event>
 6   0  0.4500850E-05  0.4084361E+03  0.7546771E-02  0.1051797E+00
       21   -1    0    0  501  503  0.00000000000E+00  0.00000000000E+00  0.10427496804E+04  0.10427496804E+04  0.00000000000E+00 0. -1.
       21   -1    0    0  503  504  0.00000000000E+00  0.00000000000E+00 -0.75504050646E+03  0.75504050646E+03  0.00000000000E+00 0. -1.
        6    1    1    2  501    0 -0.21211075238E+02 -0.17726719529E+03  0.44877414750E+03  0.51303099682E+03  0.17300000000E+03 0. -1.
       -6    1    1    2    0  504  0.14388981618E+03  0.11965556905E+03  0.75948032712E+02  0.26593013759E+03  0.17300000000E+03 0.  1.
        6    1    1    2  502    0 -0.19324404705E+03  0.23263652410E+03 -0.52715306007E+03  0.63188793533E+03  0.17300000000E+03 0. -1.
       -6    1    1    2    0  502  0.70565306109E+02 -0.17502489786E+03  0.29014005375E+03  0.38694111708E+03  0.17300000000E+03 0. -1.
</event>
<event>
 6   0  0.4500850E-05  0.2948849E+03  0.7546771E-02  0.1091112E+00
       21   -1    0    0  501  503  0.00000000000E+00  0.00000000000E+00  0.63549742469E+03  0.63549742469E+03  0.00000000000E+00 0.  1.
       21   -1    0    0  502  504  0.00000000000E+00  0.00000000000E+00 -0.85476217897E+03  0.85476217897E+03  0.00000000000E+00 0.  1.
        6    1    1    2  501    0  0.14344166249E+03 -0.11184914215E+03  0.29743303958E+03  0.38920579926E+03  0.17300000000E+03 0.  1.
       -6    1    1    2    0  503 -0.98233344234E+02  0.30723316622E+03 -0.22481537299E+03  0.42954971805E+03  0.17300000000E+03 0.  1.
        6    1    1    2  502    0  0.17972520044E+03 -0.13140479593E+03 -0.36293276787E+02  0.28427903547E+03  0.17300000000E+03 0.  1.
       -6    1    1    2    0  504 -0.22493351870E+03 -0.63979228133E+02 -0.25558914409E+03  0.38722505090E+03  0.17300000000E+03 0.  1.
</event>
<event>
 6   0  0.4500850E-05  0.2918695E+03  0.7546771E-02  0.1109322E+00
       21   -1    0    0  502  503  0.00000000000E+00  0.00000000000E+00  0.13923456884E+04  0.13923456884E+04  0.00000000000E+00 0.  1.
       21   -1    0    0  503  504  0.00000000000E+00  0.00000000000E+00 -0.15854049595E+04  0.15854049595E+04  0.00000000000E+00 0. -1.
        6    1    1    2  501    0  0.11141125299E+02 -0.12895546386E+02 -0.46997183077E+03  0.50109174959E+03  0.17300000000E+03 0. -1.
       -6    1    1    2    0  501  0.28292136448E+03  0.16169941607E+03  0.61759941167E+02  0.37407818698E+03  0.17300000000E+03 0. -1.
        6    1    1    2  502    0 -0.21676493085E+03 -0.62906210689E+02  0.11295581897E+04  0.11648068211E+04  0.17300000000E+03 0.  1.
       -6    1    1    2    0  504 -0.77297558937E+02 -0.85897658992E+02 -0.91440557122E+03  0.93777389018E+03  0.17300000000E+03 0.  1.
</event>
<event>
 6   0  0.4500850E-05  0.3505621E+03  0.7546771E-02  0.1067543E+00
       21   -1    0    0  501  503  0.00000000000E+00  0.00000000000E+00  0.17461745750E+04  0.17461745750E+04  0.00000000000E+00 0. -1.
       21   -1    0    0  502  504  0.00000000000E+00  0.00000000000E+00 -0.41139857191E+03  0.41139857191E+03  0.00000000000E+00 0. -1.
        6    1    1    2  501    0  0.22982337159E+03  0.30542660582E+03  0.18799407811E+03  0.45975533393E+03  0.17300000000E+03 0. -1.
       -6    1    1    2    0  503 -0.25427690473E+03  0.17184691811E+03  0.65695590134E+03  0.74545835823E+03  0.17300000000E+03 0.  1.
        6    1    1    2  502    0 -0.11065741642E+03 -0.30854973913E+03  0.55551513128E+03  0.66781289776E+03  0.17300000000E+03 0.  1.
       -6    1    1    2    0  504  0.13511094955E+03 -0.16872378479E+03 -0.65689107624E+02  0.28454655701E+03  0.17300000000E+03 0. -1.
</event>
<event>
 6   0  0.4500850E-05  0.3067279E+03  0.7546771E-02  0.1087847E+00
       21   -1    0    0  501  503  0.00000000000E+00  0.00000000000E+00  0.36432817920E+03  0.36432817920E+03  0.00000000000E+00 0. -1.
       21   -1    0    0  502  504  0.00000000000E+00  0.00000000000E+00 -0.12255014801E+04  0.12255014801E+04  0.00000000000E+00 0. -1.
        6    1    1    2  501    0  0.27601523834E+02 -0.16711588542E+03 -0.29946797083E+02  0.24395772981E+03  0.17300000000E+03 0. -1.
       -6    1    1    2    0  503  0.44546780404E+02 -0.12831932930E+03 -0.33932294976E+03  0.40437523435E+03  0.17300000000E+03 0.  1.
        6    1    1    2  502    0  0.17436336675E+03  0.39712565258E+03 -0.38790690447E+03  0.60705200283E+03  0.17300000000E+03 0. -1.
       -6    1    1    2    0  504 -0.24651167099E+03 -0.10169043785E+03 -0.10399664956E+03  0.33444469230E+03  0.17300000000E+03 0. -1.
</event>
<event>
 6   0  0.4500850E-05  0.3709060E+03  0.7546771E-02  0.1069355E+00
       21   -1    0    0  502  503  0.00000000000E+00  0.00000000000E+00  0.11070662860E+04  0.11070662860E+04  0.00000000000E+00 0. -1.
       21   -1    0    0  503  504  0.00000000000E+00  0.00000000000E+00 -0.11652793003E+04  0.11652793003E+04  0.00000000000E+00 0.  1.
        6    1    1    2  501    0 -0.23987138166E+02  0.90122553719E+02  0.32991582395E+02  0.19928598043E+03  0.17300000000E+03 0. -1.
       -6    1    1    2    0  501  0.22635217235E+03  0.33436953571E+03 -0.33389448965E+03  0.55177243729E+03  0.17300000000E+03 0.  1.
        6    1    1    2  502    0 -0.18176013306E+03  0.68067236368E+02  0.74954952550E+03  0.79336207737E+03  0.17300000000E+03 0. -1.
       -6    1    1    2    0  504 -0.20604901129E+02 -0.49255932579E+03 -0.50685963254E+03  0.72792509125E+03  0.17300000000E+03 0.  1.
</event>
<event>
 6   0  0.4500850E-05  0.6626586E+03  0.7546771E-02  0.1008837E+00
       21   -1    0    0  501  503  0.00000000000E+00  0.00000000000E+00  0.59354468226E+03  0.59354468226E+03  0.00000000000E+00 0. -1.
       21   -1    0    0  503  504  0.00000000000E+00  0.00000000000E+00 -0.16203325592E+04  0.16203325592E+04  0.00000000000E+00 0. -1.
        6    1    1    2  501    0 -0.12612781664E+03  0.12927928915E+03  0.19786507348E+03  0.31890586078E+03  0.17300000000E+03 0.  1.
       -6    1    1    2    0  504 -0.14351763051E+03 -0.39538267157E+03 -0.82670305553E+03  0.94355270614E+03  0.17300000000E+03 0. -1.
        6    1    1    2  502    0 -0.82086259359E+01 -0.14448999264E+03 -0.36017760179E+03  0.42497252187E+03  0.17300000000E+03 0. -1.
       -6    1    1    2    0  502  0.27785407309E+03  0.41059337506E+03 -0.37772293150E+02  0.52644615271E+03  0.17300000000E+03 0. -1.
</event>
<event>
 6   0  0.4500850E-05  0.2110967E+03  0.7546771E-02  0.1142640E+00
       21   -1    0    0  501  503  0.00000000000E+00  0.00000000000E+00  0.19188571944E+03  0.19188571944E+03  0.00000000000E+00 0.  1.
       21   -1    0    0  502  504  0.00000000000E+00  0.00000000000E+00 -0.14392885098E+04  0.14392885098E+04  0.00000000000E+00 0.  1.
        6    1    1    2  501    0 -0.77676123466E+02  0.12008469567E+03 -0.49642903510E+03  0.54481620863E+03  0.17300000000E+03 0.  1.
       -6    1    1    2    0  504 -0.10214022043E+02 -0.29328710588E+02  0.37070195660E+02  0.17963212106E+03  0.17300000000E+03 0.  1.
        6    1    1    2  502    0 -0.12906751077E+02  0.68335504749E+02 -0.40881172198E+03  0.44932432548E+03  0.17300000000E+03 0. -1.
       -6    1    1    2    0  503  0.10079689659E+03 -0.15909148983E+03 -0.37923222892E+03  0.45740157406E+03  0.17300000000E+03 0.  1.
</event>
<event>
 6   0  0.4500850E-05  0.2992188E+03  0.7546771E-02  0.1095098E+00
       21   -1    0    0  501  503  0.00000000000E+00  0.00000000000E+00  0.14948758243E+04  0.14948758243E+04  0.00000000000E+00 0. -1.
       21   -1    0    0  502  504  0.00000000000E+00  0.00000000000E+00 -0.48122644906E+03  0.48122644906E+03  0.00000000000E+00 0.  1.
        6    1    1    2  501    0 -0.18971301186E+03 -0.30968596821E+03 -0.11536724128E+03  0.41849136925E+03  0.17300000000E+03 0.  1.
       -6    1    1    2    0  504 -0.10861360390E+03  0.11855123896E+03  0.53015130675E+02  0.24205560372E+03  0.17300000000E+03 0. -1.
        6    1    1    2  502    0  0.28148759013E+03  0.11237294638E+03  0.16726921777E+03  0.38700249830E+03  0.17300000000E+03 0. -1.
       -6    1    1    2    0  503  0.16839025634E+02  0.78761782873E+02  0.90873226806E+03  0.92855280208E+03  0.17300000000E+03 0. -1.
</event>
<event>
 6   0  0.4500850E-05  0.4036375E+03  0.7546771E-02  0.1072463E+00
       21   -1    0    0  504  503  0.00000000000E+00  0.00000000000E+00  0.17223316880E+04  0.17223316880E+04  0.00000000000E+00 0. -1.
       21   -1    0    0  501  504  0.00000000000E+00  0.00000000000E+00 -0.28223297689E+03  0.28223297689E+03  0.00000000000E+00 0. -1.
        6    1    1    2  501    0  0.37205937019E+03 -0.23683912779E+02  0.41876652091E+02  0.41312438401E+03  0.17300000000E+03 0. -1.
       -6    1    1    2    0  503 -0.37449722712E+02 -0.78390108031E+01  0.24440582737E+03  0.30187272198E+03  0.17300000000E+03 0.  1.
        6    1    1    2  502    0  0.56873175889E+01  0.16836000390E+02  0.53268309140E+03  0.56035352444E+03  0.17300000000E+03 0. -1.
       -6    1    1    2    0  502 -0.34029696507E+03  0.14686923192E+02  0.62113314021E+03  0.72921403443E+03  0.17300000000E+03 0. -1.
</event>
<event>
 6   0  0.4500850E-05  0.3001932E+03  0.7546771E-02  0.1086648E+00
       21   -1    0    0  502  503  0.00000000000E+00  0.00000000000E+00  0.14994969033E+04  0.14994969033E+04  0.00000000000E+00 0.  1.
       21   -1    0    0  503  504  0.00000000000E+00  0.00000000000E+00 -0.62371791695E+03  0.62371791695E+03  0.00000000000E+00 0.  1.
        6    1    1    2  501    0  0.40958472901E+03 -0.21600875484E+00 -0.10834245912E+03  0.45763171366E+03  0.17300000000E+03 0.  1.
       -6    1    1    2    0  501 -0.39096204692E+03  0.19903977176E+03  0.57915578663E+03  0.74687253133E+03  0.17300000000E+03 0.  1.
        6    1    1    2  502    0  0.13784282881E+02 -0.95713389120E+02  0.60280047476E+03  0.63454587831E+03  0.17300000000E+03 0.  1.
       -6    1    1    2    0  504 -0.32406964970E+02 -0.10311037388E+03 -0.19783481595E+03  0.28416469693E+03  0.17300000000E+03 0. -1.
</event>
<event>
 6   0  0.4500850E-05  0.2784395E+03  0.7546771E-02  0.1112268E+00
       21   -1    0    0  504  503  0.00000000000E+00  0.00000000000E+00  0.14087815514E+04  0.14087815514E+04  0.00000000000E+00 0. -1.
       21   -1    0    0  502  504  0.00000000000E+00  0.00000000000E+00 -0.17975490922E+04  0.17975490922E+04  0.00000000000E+00 0.  1.
        6    1    1    2  501    0  0.19225740714E+03  0.38974089870E+02  0.84099705603E+03  0.88073091153E+03  0.17300000000E+03 0. -1.
       -6    1    1    2    0  501  0.66985609199E+02  0.91668450789E+02 -0.15337750655E+04  0.15476708721E+04  0.17300000000E+03 0.  1.
        6    1    1    2  502    0 -0.13566794402E+02  0.66319674109E+02 -0.12077553799E+03  0.22158088289E+03  0.17300000000E+03 0. -1.
       -6    1    1    2    0  503 -0.24567622194E+03 -0.19696221477E+03  0.42478600669E+03  0.55634797704E+03  0.17300000000E+03 0. -1.
</event>
<event>
 6   0  0.4500850E-05  0.2704311E+03  0.7546771E-02  0.1107496E+00
       21   -1    0    0  502  503  0.00000000000E+00  0.00000000000E+00  0.39641662313E+03  0.39641662313E+03  0.00000000000E+00 0. -1.
       21   -1    0    0  501  504  0.00000000000E+00  0.00000000000E+00 -0.21334335032E+04  0.21334335032E+04  0.00000000000E+00 0. -1.
        6    1    1    2  501    0 -0.25581523573E+03  0.13964412179E+03 -0.69168255891E+02  0.34591207439E+03  0.17300000000E+03 0. -1.
       -6    1    1    2    0  503  0.14950919828E+02  0.13377289203E+03 -0.24868392687E+03  0.33149873624E+03  0.17300000000E+03 0.  1.
        6    1    1    2  502    0  0.17271665460E+03 -0.26103512905E+03  0.59095357765E+02  0.36247985141E+03  0.17300000000E+03 0. -1.
       -6    1    1    2    0  504  0.68147661304E+02 -0.12381884777E+02 -0.14782600550E+04  0.14899594643E+04  0.17300000000E+03 0. -1.
</event>
<event>
 6   0  0.4500850E-05  0.4544287E+03  0.7546771E-02  0.1052529E+00
       21   -1    0    0  504  503  0.00000000000E+00  0.00000000000E+00  0.18104339047E+03  0.18104339047E+03  0.00000000000E+00 0.  1.
       21   -1    0    0  502  504  0.00000000000E+00  0.00000000000E+00 -0.20076041298E+04  0.20076041298E+04  0.00000000000E+00 0.  1.
        6    1    1    2  501    0 -0.47115949118E+02 -0.56072524201E+02 -0.51758858981E+03  0.55062781344E+03  0.17300000000E+03 0.  1.
       -6    1    1    2    0  501  0.45974938146E+02 -0.12295561063E+03 -0.35190808018E+03  0.41352155206E+03  0.17300000000E+03 0.  1.
        6    1    1    2  502    0  0.10570495125E+03 -0.17945581954E+03 -0.67023449346E+03  0.72285628178E+03  0.17300000000E+03 0.  1.
       -6    1    1    2    0  503 -0.10456394028E+03  0.35848395437E+03 -0.28682957592E+03  0.50164187302E+03  0.17300000000E+03 0.  1.
</event>
<event>
 6   0  0.4500850E-05  0.7275548E+03  0.7546771E-02  0.9929559E-01
       21   -1    0    0  504  503  0.00000000000E+00  0.00000000000E+00  0.67088631799E+03  0.67088631799E+03  0.00000000000E+00 0. -1.
       21   -1    0    0  501  504  0.00000000000E+00  0.00000000000E+00 -0.17508331741E+04  0.17508331741E+04  0.00000000000E+00 0.  1.
        6    1    1    2  501    0  0.30805578625E+03  0.22421303942E+03  0.15074281902E+03  0.44477213489E+03  0.17300000000E+03 0. -1.
       -6    1    1    2    0  503  0.17555711492E+03  0.15914578277E+02  0.46819158606E+01  0.24703136387E+03  0.17300000000E+03 0. -1.
        6    1    1    2  502    0 -0.73144035997E+03 -0.31530857393E+03 -0.56805674679E+03  0.99349985635E+03  0.17300000000E+03 0.  1.
       -6    1    1    2    0  502  0.24782745880E+03  0.75180956230E+02 -0.66731484422E+03  0.73641613700E+03  0.17300000000E+03 0. -1.
</event>
<event>
 6   0  0.4500850E-05  0.3246029E+03  0.7546771E-02  0.1077219E+00
       21   -1    0    0  504  503  0.00000000000E+00  0.00000000000E+00  0.73079318861E+03  0.73079318861E+03  0.00000000000E+00 0. -1.
       21   -1    0    0  502  504  0.00000000000E+00  0.00000000000E+00 -0.20306901795E+04  0.20306901795E+04  0.00000000000E+00 0.  1.
        6    1    1    2  501    0  0.49717317636E+03 -0.15009532912E+03 -0.20041929192E+03  0.58292938482E+03  0.17300000000E+03 0. -1.
       -6    1    1    2    0  503 -0.10949162324E+03 -0.42220705819E+02  0.40049303492E+03  0.45176838599E+03  0.17300000000E+03 0. -1.
        6    1    1    2  502    0  0.60187965546E+02  0.43636584337E+02 -0.10009883129E+04  0.10185447193E+04  0.17300000000E+03 0.  1.
       -6    1    1    2    0  501 -0.44786951867E+03  0.14867945060E+03 -0.49898242104E+03  0.70824087801E+03  0.17300000000E+03 0.  1.
</event>
<event>
 6   0  0.4500850E-05  0.3116323E+03  0.7546771E-02  0.1099938E+00
       21   -1    0    0  501  503  0.00000000000E+00  0.00000000000E+00  0.41422874920E+03  0.41422874920E+03  0.00000000000E+00 0.  1.
       21   -1    0    0  503  504  0.00000000000E+00  0.00000000000E+00 -0.12981754684E+04  0.12981754684E+04  0.00000000000E+00 0. -1.
        6    1    1    2  501    0 -0.18847191476E+03 -0.14958821294E+03  0.18449611969E+03  0.34909327447E+03  0.17300000000E+03 0.  1.
       -6    1    1    2    0  504 -0.48421500320E+02 -0.27985857176E+02 -0.27205393457E+03  0.32721582053E+03  0.17300000000E+03 0. -1.
        6    1    1    2  502    0 -0.12582309936E+03 -0.16620519981E+02 -0.22280489363E+03  0.30931976116E+03  0.17300000000E+03 0. -1.
       -6    1    1    2    0  502  0.36271651444E+03  0.19419459010E+03 -0.57358401072E+03  0.72677536146E+03  0.17300000000E+03 0.  1.
</event>
<event>
 6   0  0.4500850E-05  0.4912531E+03  0.7546771E-02  0.1044742E+00
       21   -1    0    0  501  503  0.00000000000E+00  0.00000000000E+00  0.96719390369E+03  0.96719390369E+03  0.00000000000E+00 0.  1.
       21   -1    0    0  503  504  0.00000000000E+00  0.00000000000E+00 -0.33176577111E+03  0.33176577111E+03  0.00000000000E+00 0.  1.
        6    1    1    2  501    0 -0.26676208285E+03  0.88232945590E+02  0.17095341182E+03  0.37161960463E+03  0.17300000000E+03 0.  1.
       -6    1    1    2    0  502 -0.11788623241E+03 -0.16817690328E+02 -0.13850274016E+02  0.21047762017E+03  0.17300000000E+03 0. -1.
        6    1    1    2  502    0  0.24433117952E+03 -0.72779182434E+02  0.31519686118E+03  0.44076365093E+03  0.17300000000E+03 0.  1.
       -6    1    1    2    0  504  0.14031713574E+03  0.13639271720E+01  0.16312813359E+03  0.27609879907E+03  0.17300000000E+03 0.  1.
</event>
<event>
 6   0  0.4500850E-05  0.4380322E+03  0.7546771E-02  0.1031352E+00
        2   -1    0    0  502    0  0.00000000000E+00  0.00000000000E+00  0.30903831767E+04  0.30903831767E+04  0.00000000000E+00 0. -1.
       -2   -1    0    0    0  501  0.00000000000E+00  0.00000000000E+00 -0.10456848150E+03  0.10456848150E+03  0.00000000000E+00 0.  1.
        6    1    1    2  502    0 -0.20653741772E+02  0.13491132450E+03  0.83699257984E+03  0.86551327039E+03  0.17300000000E+03 0.  1.
       -6    1    1    2    0  503  0.15956784643E+03 -0.45156824828E+02  0.87922757280E+03  0.91130190454E+03  0.17300000000E+03 0. -1.
        6    1    1    2  503    0 -0.22415587676E+03  0.17513295862E+01  0.25411753961E+03  0.38046504199E+03  0.17300000000E+03 0.  1.
       -6    1    1    2    0  501  0.85241772099E+02 -0.91505829259E+02  0.10154770029E+04  0.10376714413E+04  0.17300000000E+03 0. -1.
</event>
<event>
 6   0  0.4500850E-05  0.2696255E+03  0.7546771E-02  0.1117117E+00
       21   -1    0    0  502  503  0.00000000000E+00  0.00000000000E+00  0.44214039979E+03  0.44214039979E+03  0.00000000000E+00 0. -1.
       21   -1    0    0  501  504  0.00000000000E+00  0.00000000000E+00 -0.71933522124E+03  0.71933522124E+03  0.00000000000E+00 0. -1.
        6    1    1    2  501    0  0.53577485372E+02  0.14427432455E+01  0.12219117130E+03  0.21847725463E+03  0.17300000000E+03 0.  1.
       -6    1    1    2    0  504  0.31076404872E+02  0.23555500245E+03 -0.15642324239E+03  0.33294013408E+03  0.17300000000E+03 0. -1.
        6    1    1    2  502    0  0.12625669059E+03 -0.16765577131E+03 -0.74397834214E+02  0.28198093430E+03  0.17300000000E+03 0.  1.
       -6    1    1    2    0  503 -0.21091058083E+03 -0.69341974389E+02 -0.16856491614E+03  0.32807729802E+03  0.17300000000E+03 0. -1.
</event>
<event>
 6   0  0.4500850E-05  0.6927904E+03  0.7546771E-02  0.9729642E-01
       -1   -1    0    0    0  501  0.00000000000E+00  0.00000000000E+00  0.75047125972E+03  0.75047125972E+03  0.00000000000E+00 0. -1.
        1   -1    0    0  503    0  0.00000000000E+00  0.00000000000E+00 -0.91772707956E+03  0.91772707956E+03  0.00000000000E+00 0.  1.
        6    1    1    2  502    0  0.15699237335E+03 -0.14967324484E+03  0.29728787996E+03  0.40664206506E+03  0.17300000000E+03 0. -1.
       -6    1    1    2    0  502  0.13391091637E+03 -0.15863420712E+03 -0.75625612314E+02  0.28061571308E+03  0.17300000000E+03 0. -1.
        6    1    1    2  503    0 -0.19638774732E+03  0.46362411965E+03 -0.47713943742E+03  0.71491713811E+03  0.17300000000E+03 0.  1.
       -6    1    1    2    0  501 -0.94515542396E+02 -0.15531666770E+03  0.88221349935E+02  0.26602342303E+03  0.17300000000E+03 0.  1.
</event>
<event>
 6   0  0.4500850E-05  0.2326243E+03  0.7546771E-02  0.1125128E+00
       21   -1    0    0  504  503  0.00000000000E+00  0.00000000000E+00  0.63595114722E+03  0.63595114722E+03  0.00000000000E+00 0.  1.
       21   -1    0    0  502  504  0.00000000000E+00  0.00000000000E+00 -0.13492624160E+04  0.13492624160E+04  0.00000000000E+00 0. -1.
        6    1    1    2  501    0 -0.14921733994E+03  0.76052978902E+02 -0.38209770084E+02  0.24380085453E+03  0.17300000000E+03 0.  1.
       -6    1    1    2    0  501 -0.12242675793E+03  0.93028925339E+02 -0.99518517949E+03  0.10217461688E+04  0.17300000000E+03 0. -1.
        6    1    1    2  502    0  0.14076886927E+03 -0.90344910939E+02 -0.83539604555E+02  0.25472719332E+03  0.17300000000E+03 0. -1.
       -6    1    1    2    0  503  0.13087522860E+03 -0.78736993301E+02  0.40362328530E+03  0.46493934660E+03  0.17300000000E+03 0.  1.
</event>
<event>
 6   0  0.4500850E-05  0.3207986E+03  0.7546771E-02  0.1084770E+00
       21   -1    0    0  502  503  0.00000000000E+00  0.00000000000E+00  0.53852216942E+03  0.53852216942E+03  0.00000000000E+00 0.  1.
       21   -1    0    0  501  504  0.00000000000E+00  0.00000000000E+00 -0.11777902356E+04  0.11777902356E+04  0.00000000000E+00 0. -1.
        6    1    1    2  501    0 -0.10630109425E+03  0.15150793249E+03 -0.43995618396E+03  0.50768594628E+03  0.17300000000E+03 0. -1.
       -6    1    1    2    0  504 -0.28301887883E+03  0.20953935832E+03  0.78800581775E+02  0.40018115916E+03  0.17300000000E+03 0.  1.
        6    1    1    2  502    0 -0.66885232287E+01 -0.85715700585E+02  0.50554564854E+02  0.19969146626E+03  0.17300000000E+03 0.  1.
       -6    1    1    2    0  503  0.39600849631E+03 -0.27533159023E+03 -0.32866702886E+03  0.60875383332E+03  0.17300000000E+03 0. -1.
</event>
<event>
 6   0  0.4500850E-05  0.5976185E+03  0.7546771E-02  0.1027367E+00
       21   -1    0    0  504  503  0.00000000000E+00  0.00000000000E+00  0.17304454634E+04  0.17304454634E+04  0.00000000000E+00 0. -1.
       21   -1    0    0  501  504  0.00000000000E+00  0.00000000000E+00 -0.15650618935E+04  0.15650618935E+04  0.00000000000E+00 0. -1.
        6    1    1    2  501    0 -0.19677838096E+03 -0.15829564547E+03 -0.62477918039E+03  0.69574224166E+03  0.17300000000E+03 0.  1.
       -6    1    1    2    0  502 -0.13697316420E+03 -0.18807276356E+03 -0.81233273650E+03  0.86252332542E+03  0.17300000000E+03 0. -1.
        6    1    1    2  502    0  0.26581932221E+03  0.29018958002E+03  0.76477222773E+03  0.87731149811E+03  0.17300000000E+03 0. -1.
       -6    1    1    2    0  503  0.67932222948E+02  0.56178829005E+02  0.83772325907E+03  0.85993029167E+03  0.17300000000E+03 0.  1.
</event>
<event>
 6   0  0.4500850E-05  0.1851516E+03  0.7546771E-02  0.1163964E+00
       21   -1    0    0  501  503  0.00000000000E+00  0.00000000000E+00  0.59661932860E+03  0.59661932860E+03  0.00000000000E+00 0. -1.
       21   -1    0    0  502  504  0.00000000000E+00  0.00000000000E+00 -0.93202848773E+03  0.93202848773E+03  0.00000000000E+00 0.  1.
        6    1    1    2  501    0  0.37257850813E+02  0.36458962514E+02  0.14028657816E+03  0.22875036045E+03  0.17300000000E+03 0. -1.
       -6    1    1    2    0  504 -0.89291189728E+01 -0.10102481919E+03  0.20174447461E+03  0.28445663341E+03  0.17300000000E+03 0. -1.
        6    1    1    2  502    0  0.38240493986E+02  0.52562624615E+02 -0.78113795582E+03  0.80270210596E+03  0.17300000000E+03 0.  1.
       -6    1    1    2    0  503 -0.66569225826E+02  0.12003232057E+02  0.10369774392E+03  0.21273871651E+03  0.17300000000E+03 0. -1.
</event>
<event>
 6   0  0.4500850E-05  0.2132187E+03  0.7546771E-02  0.1142962E+00
       21   -1    0    0  501  503  0.00000000000E+00  0.00000000000E+00  0.26007386869E+03  0.26007386869E+03  0.00000000000E+00 0. -1.
       21   -1    0    0  502  504  0.00000000000E+00  0.00000000000E+00 -0.89111538771E+03  0.89111538771E+03  0.00000000000E+00 0.  1.
        6    1    1    2  501    0  0.22216440532E+02  0.16308249807E+03 -0.29826081359E+02  0.24064094942E+03  0.17300000000E+03 0. -1.
       -6    1    1    2    0  504 -0.11653136422E+03  0.38765023398E+02 -0.17787269784E+03  0.27685733244E+03  0.17300000000E+03 0. -1.
        6    1    1    2  502    0 -0.12490324670E+02 -0.80595332313E+02 -0.60773057737E+02  0.20068378197E+03  0.17300000000E+03 0. -1.
       -6    1    1    2    0  503  0.10680524836E+03 -0.12125218916E+03 -0.36256968208E+03  0.43300719257E+03  0.17300000000E+03 0.  1.
</event>
<event>
 6   0  0.4500850E-05  0.3639847E+03  0.7546771E-02  0.1068012E+00
       21   -1    0    0  502  503  0.00000000000E+00  0.00000000000E+00  0.10395780429E+04  0.10395780429E+04  0.00000000000E+00 0.  1.
       21   -1    0    0  501  504  0.00000000000E+00  0.00000000000E+00 -0.56163890477E+03  0.56163890477E+03  0.00000000000E+00 0.  1.
        6    1    1    2  501    0  0.36017233179E+02 -0.18223423693E+03  0.41418718583E+02  0.25719850008E+03  0.17300000000E+03 0. -1.
       -6    1    1    2    0  504 -0.38575709156E+03 -0.24226821762E+03  0.12922386536E+03  0.50411331101E+03  0.17300000000E+03 0.  1.
        6    1    1    2  502    0  0.40178577517E+03  0.39379652404E+03  0.17554728401E+03  0.61420954111E+03  0.17300000000E+03 0.  1.
       -6    1    1    2    0  503 -0.52045916782E+02  0.30705930512E+02  0.13174927019E+03  0.22569559548E+03  0.17300000000E+03 0. -1.
</event>
<event>
 6   0  0.4500850E-05  0.2434259E+03  0.7546771E-02  0.1121626E+00
       21   -1    0    0  502  503  0.00000000000E+00  0.00000000000E+00  0.15555115920E+04  0.15555115920E+04  0.00000000000E+00 0.  1.
       21   -1    0    0  501  504  0.00000000000E+00  0.00000000000E+00 -0.35563269322E+03  0.35563269322E+03  0.00000000000E+00 0. -1.
        6    1    1    2  501    0 -0.24631343283E+03  0.13099489503E+03  0.53238226334E+03  0.62545171200E+03  0.17300000000E+03 0. -1.
       -6    1    1    2    0  503 -0.85053043985E+01 -0.98515370598E+02  0.71186024884E+03  0.73922366868E+03  0.17300000000E+03 0.  1.
        6    1    1    2  502    0  0.20582564607E+03 -0.19513879470E+02  0.12677393566E+03  0.29790202892E+03  0.17300000000E+03 0. -1.
       -6    1    1    2    0  504  0.48993091155E+02 -0.12965644965E+02 -0.17113754909E+03  0.24856687559E+03  0.17300000000E+03 0. -1.
</event>
<event>
 6   0  0.4500850E-05  0.1883881E+03  0.7546771E-02  0.1161622E+00
       21   -1    0    0  504  503  0.00000000000E+00  0.00000000000E+00  0.74978174659E+02  0.74978174659E+02  0.00000000000E+00 0.  1.
       21   -1    0    0  501  504  0.00000000000E+00  0.00000000000E+00 -0.20710971803E+04  0.20710971803E+04  0.00000000000E+00 0. -1.
        6    1    1    2  501    0 -0.18597322622E+02  0.72824051467E+02 -0.44693228846E+03  0.48510480656E+03  0.17300000000E+03 0.  1.
       -6    1    1    2    0  503  0.96002701871E+02  0.97562703111E+00 -0.80816317779E+03  0.83203016324E+03  0.17300000000E+03 0. -1.
        6    1    1    2  502    0 -0.50694413282E+02 -0.19565358170E+02 -0.44828754738E+03  0.48357362616E+03  0.17300000000E+03 0.  1.
       -6    1    1    2    0  502 -0.26710965967E+02 -0.54234320329E+02 -0.29273599205E+03  0.34536675904E+03  0.17300000000E+03 0.  1.
</event>
<event>
 6   0  0.4500850E-05  0.6758529E+03  0.7546771E-02  0.9759442E-01
        1   -1    0    0  503    0  0.00000000000E+00  0.00000000000E+00  0.12728380216E+04  0.12728380216E+04  0.00000000000E+00 0.  1.
       -1   -1    0    0    0  501  0.00000000000E+00  0.00000000000E+00 -0.57653787787E+03  0.57653787787E+03  0.00000000000E+00 0. -1.
        6    1    1    2  502    0  0.38082987933E+03 -0.18829156768E+03  0.71953827186E+03  0.85331672674E+03  0.17300000000E+03 0.  1.
       -6    1    1    2    0  502 -0.24632897406E+03 -0.11710401070E+03 -0.81461791121E+02  0.33310109005E+03  0.17300000000E+03 0. -1.
        6    1    1    2  503    0 -0.21227325746E+03  0.35627389343E+03  0.10417143947E+03  0.46127184152E+03  0.17300000000E+03 0. -1.
       -6    1    1    2    0  501  0.77772352186E+02 -0.50878315053E+02 -0.45947776489E+02  0.20168624116E+03  0.17300000000E+03 0.  1.
</event>
<event>
 6   0  0.4500850E-05  0.3575446E+03  0.7546771E-02  0.1071725E+00
       21   -1    0    0  502  503  0.00000000000E+00  0.00000000000E+00  0.61246378067E+03  0.61246378067E+03  0.00000000000E+00 0.  1.
       21   -1    0    0  501  504  0.00000000000E+00  0.00000000000E+00 -0.20535832837E+04  0.20535832837E+04  0.00000000000E+00 0.  1.
        6    1    1    2  501    0 -0.21558488272E+03 -0.22241826013E+03  0.19046428247E+02  0.35530056364E+03  0.17300000000E+03 0.  1.
       -6    1    1    2    0  504  0.28766491632E+03 -0.39217874846E+02 -0.33329634619E+03  0.47466261720E+03  0.17300000000E+03 0. -1.
        6    1    1    2  502    0 -0.25406356542E+03  0.21541914354E+03 -0.14075038974E+04  0.14566914305E+04  0.17300000000E+03 0.  1.
       -6    1    1    2    0  503  0.18198353182E+03  0.46216991432E+02  0.28063431228E+03  0.37939245298E+03  0.17300000000E+03 0.  1.
</event>
<event>
 6   0  0.4500850E-05  0.3721945E+03  0.7546771E-02  0.1080770E+00
       21   -1    0    0  501  503  0.00000000000E+00  0.00000000000E+00  0.55766251497E+03  0.55766251497E+03  0.00000000000E+00 0. -1.
       21   -1    0    0  502  504  0.00000000000E+00  0.00000000000E+00 -0.14328251914E+04  0.14328251914E+04  0.00000000000E+00 0. -1.
        6    1    1    2  501    0 -0.17992462857E+02 -0.33265732377E+02 -0.10268868740E+03  0.20470540831E+03  0.17300000000E+03 0. -1.
       -6    1    1    2    0  504 -0.14309805331E+03 -0.80927765193E+02 -0.95067725449E+03  0.98017477944E+03  0.17300000000E+03 0.  1.
        6    1    1    2  502    0  0.34261991509E+03  0.28847193113E+03  0.11620035162E+03  0.49399998277E+03  0.17300000000E+03 0. -1.
       -6    1    1    2    0  503 -0.18152939892E+03 -0.17427843356E+03  0.62002913839E+02  0.31160753585E+03  0.17300000000E+03 0. -1.
</event>
<event>
 6   0  0.4500850E-05  0.4389530E+03  0.7546771E-02  0.1058307E+00
       21   -1    0    0  502  503  0.00000000000E+00  0.00000000000E+00  0.19984800067E+04  0.19984800067E+04  0.00000000000E+00 0.  1.
       21   -1    0    0  501  504  0.00000000000E+00  0.00000000000E+00 -0.49967206121E+03  0.49967206121E+03  0.00000000000E+00 0.  1.
        6    1    1    2  501    0 -0.29818676752E+02  0.14232797758E+02  0.28830276073E+03  0.33784494648E+03  0.17300000000E+03 0.  1.
       -6    1    1    2    0  504 -0.24046558610E+03  0.24573200698E+03 -0.34709678247E+03  0.51827897290E+03  0.17300000000E+03 0.  1.
        6    1    1    2  502    0  0.13194994981E+03 -0.13041598769E+03  0.93043908292E+03  0.96439877962E+03  0.17300000000E+03 0.  1.
       -6    1    1    2    0  503  0.13833431304E+03 -0.12954881704E+03  0.62716288427E+03  0.67762936888E+03  0.17300000000E+03 0.  1.
</event>
<event>
 6   0  0.4500850E-05  0.2043108E+03  0.7546771E-02  0.1146881E+00
       21   -1    0    0  501  503  0.00000000000E+00  0.00000000000E+00  0.14087326059E+04  0.14087326059E+04  0.00000000000E+00 0.  1.
       21   -1    0    0  502  504  0.00000000000E+00  0.00000000000E+00 -0.42991551525E+03  0.42991551525E+03  0.00000000000E+00 0.  1.
        6    1    1    2  501    0  0.99466736999E+02 -0.40426715805E+02  0.38817623257E+03  0.43833518984E+03  0.17300000000E+03 0.  1.
       -6    1    1    2    0  503 -0.83348483806E+02  0.70830089469E+02 -0.34556724566E+02  0.20757417599E+03  0.17300000000E+03 0.  1.
        6    1    1    2  502    0  0.14595975667E+02 -0.15718754476E+03 -0.21932547850E+03  0.32086388431E+03  0.17300000000E+03 0.  1.
       -6    1    1    2    0  504 -0.30714228860E+02  0.12678417110E+03  0.84452306119E+03  0.87187487106E+03  0.17300000000E+03 0.  1.
</event>
<event>
 6   0  0.4500850E-05  0.2378934E+03  0.7546771E-02  0.1123529E+00
       21   -1    0    0  501  503  0.00000000000E+00  0.00000000000E+00  0.96909815554E+03  0.96909815554E+03  0.00000000000E+00 0. -1.
       21   -1    0    0  502  504  0.00000000000E+00  0.00000000000E+00 -0.55494740284E+03  0.55494740284E+03  0.00000000000E+00 0. -1.
        6    1    1    2  501    0  0.18117031069E+03  0.12720472594E+03  0.38593558666E+02  0.28358805783E+03  0.17300000000E+03 0. -1.
       -6    1    1    2    0  504 -0.46764404299E+02  0.19010794016E+02 -0.26431584822E+03  0.31990652919E+03  0.17300000000E+03 0. -1.
        6    1    1    2  502    0 -0.17230611451E+03 -0.21791002450E+03  0.91457007884E+02  0.33980517972E+03  0.17300000000E+03 0.  1.
       -6    1    1    2    0  503  0.37900208123E+02  0.71694504540E+02  0.54841603437E+03  0.58074579164E+03  0.17300000000E+03 0.  1.
</event>
<event>
 6   0  0.4500850E-05  0.2054804E+03  0.7546771E-02  0.1147256E+00
       21   -1    0    0  501  503  0.00000000000E+00  0.00000000000E+00  0.26672878804E+04  0.26672878804E+04  0.00000000000E+00 0.  1.
       21   -1    0    0  502  504  0.00000000000E+00  0.00000000000E+00 -0.35623828134E+03  0.35623828134E+03  0.00000000000E+00 0. -1.
        6    1    1    2  501    0 -0.54117225595E+02 -0.54303108648E+02  0.11131808156E+04  0.11291492506E+04  0.17300000000E+03 0.  1.
       -6    1    1    2    0  503 -0.36143550529E+02 -0.14438801848E+03 -0.15633941352E+03  0.27663200889E+03  0.17300000000E+03 0. -1.
        6    1    1    2  502    0  0.47859746689E+02  0.73780276979E+01 -0.52335988521E+02  0.18711773390E+03  0.17300000000E+03 0.  1.
       -6    1    1    2    0  504  0.42401029435E+02  0.19131309943E+03  0.14065441855E+04  0.14306271684E+04  0.17300000000E+03 0. -1.
</event>
<event>
 6   0  0.4500850E-05  0.2331753E+03  0.7546771E-02  0.1128964E+00
       21   -1    0    0  502  503  0.00000000000E+00  0.00000000000E+00  0.11855388871E+04  0.11855388871E+04  0.00000000000E+00 0.  1.
       21   -1    0    0  501  504  0.00000000000E+00  0.00000000000E+00 -0.79715068279E+03  0.79715068279E+03  0.00000000000E+00 0. -1.
        6    1    1    2  501    0  0.53700535483E+02  0.92899024052E+02  0.11246934692E+03  0.23257757884E+03  0.17300000000E+03 0.  1.
       -6    1    1    2    0  503 -0.21963025650E+03  0.24295300044E+02  0.91665928143E+03  0.95865580341E+03  0.17300000000E+03 0.  1.
        6    1    1    2  502    0  0.57474585453E+02  0.28591553132E+02 -0.14084933695E+03  0.23213862368E+03  0.17300000000E+03 0. -1.
       -6    1    1    2    0  504  0.10845513557E+03 -0.14578587723E+03 -0.49989108708E+03  0.55931756397E+03  0.17300000000E+03 0. -1.
</event>
<event>
 6   0  0.4500850E-05  0.2251450E+03  0.7546771E-02  0.1134626E+00
       21   -1    0    0  501  503  0.00000000000E+00  0.00000000000E+00  0.10517701980E+04  0.10517701980E+04  0.00000000000E+00 0.  1.
       21   -1    0    0  502  504  0.00000000000E+00  0.00000000000E+00 -0.22294936306E+03  0.22294936306E+03  0.00000000000E+00 0. -1.
        6    1    1    2  501    0 -0.34727762187E+02  0.11461739857E+03  0.13453406329E+03  0.24974302735E+03  0.17300000000E+03 0.  1.
       -6    1    1    2    0  503 -0.52697399218E+02 -0.42347940051E+02  0.26006857852E+03  0.31958571533E+03  0.17300000000E+03 0.  1.
        6    1    1    2  502    0  0.20170754121E+03  0.57550174530E+02  0.35723464343E+03  0.44893601463E+03  0.17300000000E+03 0.  1.
       -6    1    1    2    0  504 -0.11428237980E+03 -0.12981963305E+03  0.76983549736E+02  0.25645480379E+03  0.17300000000E+03 0. -1.
</event>
<event>
 6   0  0.4500850E-05  0.4721782E+03  0.7546771E-02  0.1049522E+00
       21   -1    0    0  501  503  0.00000000000E+00  0.00000000000E+00  0.91619069219E+03  0.91619069219E+03  0.00000000000E+00 0. -1.
       21   -1    0    0  503  504  0.00000000000E+00  0.00000000000E+00 -0.65437215996E+03  0.65437215996E+03  0.00000000000E+00 0.  1.
        6    1    1    2  501    0  0.42223299031E+03 -0.70756586996E+02  0.15727988424E+03  0.48780442259E+03  0.17300000000E+03 0. -1.
       -6    1    1    2    0  502 -0.42701287355E+03  0.14172335743E+03  0.34945270190E+03  0.59537525569E+03  0.17300000000E+03 0.  1.
        6    1    1    2  502    0  0.11218912224E+03 -0.22670970620E+01 -0.12857050745E+03  0.24300393878E+03  0.17300000000E+03 0.  1.
       -6    1    1    2    0  504 -0.10740923900E+03 -0.68699673372E+02 -0.11634354645E+03  0.24437923509E+03  0.17300000000E+03 0.  1.
</event>
<event>
 6   0  0.4500850E-05  0.1951712E+03  0.7546771E-02  0.1157113E+00
       21   -1    0    0  501  503  0.00000000000E+00  0.00000000000E+00  0.58040336234E+03  0.58040336234E+03  0.00000000000E+00 0. -1.
       21   -1    0    0  502  504  0.00000000000E+00  0.00000000000E+00 -0.16686515561E+04  0.16686515561E+04  0.00000000000E+00 0. -1.
        6    1    1    2  501    0 -0.10639510618E+03  0.38231768712E+02  0.42668733709E+03  0.47410196202E+03  0.17300000000E+03 0. -1.
       -6    1    1    2    0  503  0.11552607644E+03 -0.71402822569E+02 -0.19036753638E+03  0.29088388803E+03  0.17300000000E+03 0. -1.
        6    1    1    2  502    0 -0.32997140108E+02  0.80368631400E+02 -0.12842082573E+04  0.12987177431E+04  0.17300000000E+03 0. -1.
       -6    1    1    2    0  504  0.23866169851E+02 -0.47197577543E+02 -0.40359737148E+02  0.18535132525E+03  0.17300000000E+03 0. -1.
</event>
<event>
 6   0  0.4500850E-05  0.1976323E+03  0.7546771E-02  0.1154155E+00
       21   -1    0    0  502  503  0.00000000000E+00  0.00000000000E+00  0.11778129703E+04  0.11778129703E+04  0.00000000000E+00 0.  1.
       21   -1    0    0  503  504  0.00000000000E+00  0.00000000000E+00 -0.26514964927E+03  0.26514964927E+03  0.00000000000E+00 0.  1.
        6    1    1    2  501    0 -0.64551826768E+02  0.52405832794E+02 -0.21063992054E+02  0.19309583478E+03  0.17300000000E+03 0.  1.
       -6    1    1    2    0  501 -0.54855754014E+02 -0.41309603718E+01  0.58916088716E+03  0.61649474413E+03  0.17300000000E+03 0.  1.
        6    1    1    2  502    0  0.60124209837E+02 -0.11464594194E+03  0.37855302638E+03  0.43587843075E+03  0.17300000000E+03 0. -1.
       -6    1    1    2    0  504  0.59283370944E+02  0.66371069518E+02 -0.33986600456E+02  0.19749360990E+03  0.17300000000E+03 0.  1.
</event>
<event>
 6   0  0.4500850E-05  0.3475596E+03  0.7546771E-02  0.1076176E+00
       21   -1    0    0  501  503  0.00000000000E+00  0.00000000000E+00  0.59419519649E+03  0.59419519649E+03  0.00000000000E+00 0.  1.
       21   -1    0    0  502  504  0.00000000000E+00  0.00000000000E+00 -0.89601090491E+03  0.89601090491E+03  0.00000000000E+00 0.  1.
        6    1    1    2  501    0 -0.23370660603E+03  0.66583166138E+02  0.15491299764E+03  0.33612368639E+03  0.17300000000E+03 0.  1.
       -6    1    1    2    0  503  0.95419369780E+02 -0.20706759134E+03 -0.60894874314E+02  0.29260729525E+03  0.17300000000E+03 0.  1.
        6    1    1    2  502    0 -0.17089879732E+03  0.38491352623E+02  0.80588145753E+02  0.25905874313E+03  0.17300000000E+03 0.  1.
       -6    1    1    2    0  504  0.30918603357E+03  0.10199307258E+03 -0.47642197750E+03  0.60241637665E+03  0.17300000000E+03 0.  1.
</event>
<event>
 6   0  0.4500850E-05  0.5144076E+03  0.7546771E-02  0.1010840E+00
        2   -1    0    0  502    0  0.00000000000E+00  0.00000000000E+00  0.21062964010E+04  0.21062964010E+04  0.00000000000E+00 0.  1.
       -2   -1    0    0    0  501  0.00000000000E+00  0.00000000000E+00 -0.15769027758E+03  0.15769027758E+03  0.00000000000E+00 0. -1.
        6    1    1    2  502    0  0.10719382760E+03  0.21314721081E+03  0.16211365737E+03  0.33635113804E+03  0.17300000000E+03 0. -1.
       -6    1    1    2    0  501 -0.19196844216E+03 -0.16514382241E+03  0.95635643299E+03  0.10043261382E+04  0.17300000000E+03 0.  1.
        6    1    1    2  503    0  0.53182243976E+02 -0.99687643284E+02  0.55956094963E+03  0.59649260989E+03  0.17300000000E+03 0.  1.
       -6    1    1    2    0  503  0.31592370581E+02  0.51684254882E+02  0.27057508340E+03  0.32681679246E+03  0.17300000000E+03 0. -1.
</event>
<event>
 6   0  0.4500850E-05  0.3494082E+03  0.7546771E-02  0.1072637E+00
       21   -1    0    0  504  503  0.00000000000E+00  0.00000000000E+00  0.87605776981E+03  0.87605776981E+03  0.00000000000E+00 0.  1.
       21   -1    0    0  501  504  0.00000000000E+00  0.00000000000E+00 -0.79230769998E+03  0.79230769998E+03  0.00000000000E+00 0.  1.
        6    1    1    2  501    0  0.47090110214E+02 -0.46658670760E+02 -0.28747968010E+03  0.34200595975E+03  0.17300000000E+03 0.  1.
       -6    1    1    2    0  502  0.45009313867E+01 -0.16096515172E+03  0.70664416193E+02  0.24668299124E+03  0.17300000000E+03 0. -1.
        6    1    1    2  502    0 -0.21284178639E+03  0.55331123537E+03  0.19692441027E+03  0.64819994800E+03  0.17300000000E+03 0.  1.
       -6    1    1    2    0  503  0.16125074479E+03 -0.34568741290E+03  0.10364092347E+03  0.43147657080E+03  0.17300000000E+03 0.  1.
</event>
<event>
 6   0  0.4500850E-05  0.2541024E+03  0.7546771E-02  0.1114783E+00
       21   -1    0    0  501  503  0.00000000000E+00  0.00000000000E+00  0.34306636378E+03  0.34306636378E+03  0.00000000000E+00 0. -1.
       21   -1    0    0  502  504  0.00000000000E+00  0.00000000000E+00 -0.13772425803E+04  0.13772425803E+04  0.00000000000E+00 0.  1.
        6    1    1    2  501    0  0.22363709278E+02  0.14882069498E+03 -0.51710239388E+03  0.56566034022E+03  0.17300000000E+03 0. -1.
       -6    1    1    2    0  504  0.14145727668E+03  0.74755256551E+02 -0.31770672314E+03  0.39555666021E+03  0.17300000000E+03 0.  1.
        6    1    1    2  502    0  0.96813855175E+01 -0.28231955727E+03 -0.33653935847E+03  0.47221372433E+03  0.17300000000E+03 0.  1.
       -6    1    1    2    0  503 -0.17350237147E+03  0.58743605744E+02  0.13717225893E+03  0.28687821936E+03  0.17300000000E+03 0. -1.
</event>
<event>
 6   0  0.4500850E-05  0.2397163E+03  0.7546771E-02  0.1122205E+00
       21   -1    0    0  504  503  0.00000000000E+00  0.00000000000E+00  0.79680246505E+03  0.79680246505E+03  0.00000000000E+00 0.  1.
       21   -1    0    0  501  504  0.00000000000E+00  0.00000000000E+00 -0.40070032826E+03  0.40070032826E+03  0.00000000000E+00 0.  1.
        6    1    1    2  501    0 -0.84851547890E+02 -0.20725379928E+03  0.68997856901E+02  0.29127929338E+03  0.17300000000E+03 0.  1.
       -6    1    1    2    0  503  0.15272440842E+03  0.59720521145E+02  0.12823460921E+03  0.27067397469E+03  0.17300000000E+03 0.  1.
        6    1    1    2  502    0  0.83805062245E+02  0.10173098458E+03  0.30781321888E+03  0.37689582035E+03  0.17300000000E+03 0.  1.
       -6    1    1    2    0  502 -0.15167792278E+03  0.45802293562E+02 -0.10894354821E+03  0.25865370488E+03  0.17300000000E+03 0.  1.
</event>
<event>
 6   0  0.4500850E-05  0.3050542E+03  0.7546771E-02  0.1083537E+00
       21   -1    0    0  502  503  0.00000000000E+00  0.00000000000E+00  0.24530064031E+03  0.24530064031E+03  0.00000000000E+00 0.  1.
       21   -1    0    0  501  504  0.00000000000E+00  0.00000000000E+00 -0.18293940608E+04  0.18293940608E+04  0.00000000000E+00 0.  1.
        6    1    1    2  501    0  0.79410137343E+02  0.36456438332E+03 -0.50531769865E+03  0.65152754053E+03  0.17300000000E+03 0.  1.
       -6    1    1    2    0  503 -0.18935913800E+03  0.67834048984E+02 -0.26567771727E+03  0.37546236936E+03  0.17300000000E+03 0.  1.
        6    1    1    2  502    0 -0.17303899157E+02 -0.34065982779E+03 -0.30739458432E+03  0.49068215136E+03  0.17300000000E+03 0.  1.
       -6    1    1    2    0  504  0.12725289982E+03 -0.91738604517E+02 -0.50570342025E+03  0.55702263987E+03  0.17300000000E+03 0. -1.
</event>
<event>
 6   0  0.4500850E-05  0.2881045E+03  0.7546771E-02  0.1101207E+00
       21   -1    0    0  504  503  0.00000000000E+00  0.00000000000E+00  0.11867805223E+04  0.11867805223E+04  0.00000000000E+00 0. -1.
       21   -1    0    0  501  504  0.00000000000E+00  0.00000000000E+00 -0.42312531962E+03  0.42312531962E+03  0.00000000000E+00 0. -1.
        6    1    1    2  501    0 -0.53707722840E+02  0.21007400272E+03 -0.36354050747E+01  0.27741272913E+03  0.17300000000E+03 0.  1.
       -6    1    1    2    0  502  0.76220667566E+02 -0.22799242756E+03 -0.12355621607E+03  0.32091319031E+03  0.17300000000E+03 0. -1.
        6    1    1    2  502    0  0.11610549076E+03 -0.78500996954E+02  0.55311017589E+03  0.59624052041E+03  0.17300000000E+03 0. -1.
       -6    1    1    2    0  503 -0.13861843549E+03  0.96419421787E+02  0.33773664796E+03  0.41533940209E+03  0.17300000000E+03 0. -1.
</event>
<event>
 6   0  0.4500850E-05  0.3226299E+03  0.7546771E-02  0.1091636E+00
       21   -1    0    0  501  503  0.00000000000E+00  0.00000000000E+00  0.72681382147E+03  0.72681382147E+03  0.00000000000E+00 0. -1.
       21   -1    0    0  502  504  0.00000000000E+00  0.00000000000E+00 -0.66343963893E+03  0.66343963893E+03  0.00000000000E+00 0. -1.
        6    1    1    2  501    0  0.10550765361E+03  0.19564330839E+02  0.20532413323E+03  0.28913946064E+03  0.17300000000E+03 0. -1.
       -6    1    1    2    0  503 -0.11918877711E+03 -0.19539615261E+03 -0.39271102694E+02  0.28958045609E+03  0.17300000000E+03 0.  1.
        6    1    1    2  502    0  0.26254039764E+03  0.16973955908E+03 -0.28564632370E+03  0.45745141879E+03  0.17300000000E+03 0. -1.
       -6    1    1    2    0  504 -0.24885927414E+03  0.60922626902E+01  0.18296747571E+03  0.35408212488E+03  0.17300000000E+03 0. -1.
</event>
<event>
 6   0  0.4500850E-05  0.2914459E+03  0.7546771E-02  0.1099812E+00
       21   -1    0    0  501  503  0.00000000000E+00  0.00000000000E+00  0.17023543604E+04  0.17023543604E+04  0.00000000000E+00 0.  1.
       21   -1    0    0  502  504  0.00000000000E+00  0.00000000000E+00 -0.22282528842E+03  0.22282528842E+03  0.00000000000E+00 0.  1.
        6    1    1    2  501    0 -0.12986244309E+03  0.54170119246E+02  0.15807354060E+02  0.22355654405E+03  0.17300000000E+03 0.  1.
       -6    1    1    2    0  503 -0.21600211488E+03  0.30296943328E+02  0.59872929438E+03  0.66028826005E+03  0.17300000000E+03 0. -1.
        6    1    1    2  502    0  0.21714373909E+03 -0.16263003907E+03  0.65766138874E+03  0.73215260381E+03  0.17300000000E+03 0.  1.
       -6    1    1    2    0  504  0.12872081887E+03  0.78162976498E+02  0.20733103481E+03  0.30918224092E+03  0.17300000000E+03 0.  1.
</event>
<event>
 6   0  0.4500850E-05  0.3228308E+03  0.7546771E-02  0.1084161E+00
       21   -1    0    0  504  503  0.00000000000E+00  0.00000000000E+00  0.59314573065E+03  0.59314573065E+03  0.00000000000E+00 0.  1.
       21   -1    0    0  502  504  0.00000000000E+00  0.00000000000E+00 -0.25989099649E+04  0.25989099649E+04  0.00000000000E+00 0.  1.
        6    1    1    2  501    0  0.20335612294E+03 -0.83431532192E+02  0.78951797740E+02  0.29064913499E+03  0.17300000000E+03 0. -1.
       -6    1    1    2    0  501  0.28276620607E+03  0.29861703518E+03 -0.19819375820E+04  0.20315349960E+04  0.17300000000E+03 0.  1.
        6    1    1    2  502    0 -0.12045343699E+03 -0.20416257713E+02 -0.30995487165E+03  0.37540228625E+03  0.17300000000E+03 0. -1.
       -6    1    1    2    0  503 -0.36566889202E+03 -0.19476924527E+03  0.20717642167E+03  0.49446927831E+03  0.17300000000E+03 0.  1.
</event>
<event>
 6   0  0.4500850E-05  0.2298724E+03  0.7546771E-02  0.1127432E+00
       21   -1    0    0  502  503  0.00000000000E+00  0.00000000000E+00  0.51534286252E+03  0.51534286252E+03  0.00000000000E+00 0. -1.
       21   -1    0    0  501  504  0.00000000000E+00  0.00000000000E+00 -0.58461049962E+03  0.58461049962E+03  0.00000000000E+00 0. -1.
        6    1    1    2  501    0 -0.36597491901E+01  0.22211326986E+03 -0.12817867516E+03  0.30936462496E+03  0.17300000000E+03 0.  1.
       -6    1    1    2    0  504  0.77129759291E+01 -0.74479611403E+02  0.15540619663E+03  0.24430879735E+03  0.17300000000E+03 0. -1.
        6    1    1    2  502    0  0.30330764757E+02 -0.19592337985E+03  0.96631521712E+02  0.28030800390E+03  0.17300000000E+03 0. -1.
       -6    1    1    2    0  503 -0.34383991496E+02  0.48289721395E+02 -0.19312668028E+03  0.26597193593E+03  0.17300000000E+03 0. -1.
</event>
<event>
 6   0  0.4500850E-05  0.2370109E+03  0.7546771E-02  0.1130669E+00
       21   -1    0    0  501  503  0.00000000000E+00  0.00000000000E+00  0.13017596225E+04  0.13017596225E+04  0.00000000000E+00 0.  1.
       21   -1    0    0  502  504  0.00000000000E+00  0.00000000000E+00 -0.25584766183E+03  0.25584766183E+03  0.00000000000E+00 0.  1.
        6    1    1    2  501    0  0.87102942080E+02  0.13850106227E+03  0.73033611050E+03  0.76817270264E+03  0.17300000000E+03 0.  1.
       -6    1    1    2    0  503 -0.58474412575E+02 -0.14905716727E+03  0.25834707796E+03  0.34972776374E+03  0.17300000000E+03 0.  1.
        6    1    1    2  502    0 -0.10100671470E+03 -0.22024532100E+02  0.12558910703E+03  0.23746380826E+03  0.17300000000E+03 0.  1.
       -6    1    1    2    0  504  0.72378185192E+02  0.32580637102E+02 -0.68360334806E+02  0.20224300972E+03  0.17300000000E+03 0. -1.
</event>
<event>
 6   0  0.4500850E-05  0.2374782E+03  0.7546771E-02  0.1125821E+00
       21   -1    0    0  501  503  0.00000000000E+00  0.00000000000E+00  0.12339075564E+04  0.12339075564E+04  0.00000000000E+00 0. -1.
       21   -1    0    0  502  504  0.00000000000E+00  0.00000000000E+00 -0.19517041951E+03  0.19517041951E+03  0.00000000000E+00 0. -1.
        6    1    1    2  501    0  0.63750113720E+02 -0.91789491856E+02  0.34777316603E+03  0.40418382306E+03  0.17300000000E+03 0. -1.
       -6    1    1    2    0  503 -0.90348817130E+02 -0.16008146605E+03  0.21236654610E+03  0.32987502850E+03  0.17300000000E+03 0.  1.
        6    1    1    2  502    0  0.82636380664E+02  0.24856852753E+03  0.36116586157E+03  0.47852362936E+03  0.17300000000E+03 0. -1.
       -6    1    1    2    0  504 -0.56037677255E+02  0.33024303698E+01  0.11743156319E+03  0.21649549499E+03  0.17300000000E+03 0.  1.
</event>
<event>
 6   0  0.4500850E-05  0.2734014E+03  0.7546771E-02  0.1110109E+00
       21   -1    0    0  504  503  0.00000000000E+00  0.00000000000E+00  0.10000223801E+04  0.10000223801E+04  0.00000000000E+00 0. -1.
       21   -1    0    0  502  504  0.00000000000E+00  0.00000000000E+00 -0.63082473653E+03  0.63082473653E+03  0.00000000000E+00 0. -1.
        6    1    1    2  501    0 -0.32263496655E+02 -0.12652580088E+03  0.11266722544E+03  0.24427978875E+03  0.17300000000E+03 0.  1.
       -6    1    1    2    0  501 -0.12419288209E+03  0.16681198643E+03  0.14363120810E+03  0.30628260597E+03  0.17300000000E+03 0. -1.
        6    1    1    2  502    0  0.22906129706E+03  0.47877877979E+02 -0.41858266210E+03  0.50980566299E+03  0.17300000000E+03 0. -1.
       -6    1    1    2    0  503 -0.72604918309E+02 -0.88164063527E+02  0.53148187209E+03  0.57047905888E+03  0.17300000000E+03 0. -1.
</event>
<event>
 6   0  0.4500850E-05  0.4914833E+03  0.7546771E-02  0.1049031E+00
       21   -1    0    0  504  503  0.00000000000E+00  0.00000000000E+00  0.49054136009E+03  0.49054136009E+03  0.00000000000E+00 0.  1.
       21   -1    0    0  502  504  0.00000000000E+00  0.00000000000E+00 -0.86764987016E+03  0.86764987016E+03  0.00000000000E+00 0.  1.
        6    1    1    2  501    0 -0.63554346373E+02  0.20428756356E+02  0.11493742105E+03  0.21816530381E+03  0.17300000000E+03 0.  1.
       -6    1    1    2    0  503 -0.10834226348E+03 -0.27757523441E+03  0.10942416475E+03  0.36150892747E+03  0.17300000000E+03 0.  1.
        6    1    1    2  502    0  0.37878083707E+02  0.84156490749E+02 -0.14620038339E+03  0.24458253467E+03  0.17300000000E+03 0. -1.
       -6    1    1    2    0  501  0.13401852615E+03  0.17298998730E+03 -0.45526971248E+03  0.53393446430E+03  0.17300000000E+03 0.  1.
</event>
<event>
 6   0  0.4500850E-05  0.2712912E+03  0.7546771E-02  0.1109968E+00
       21   -1    0    0  504  503  0.00000000000E+00  0.00000000000E+00  0.18723956275E+03  0.18723956275E+03  0.00000000000E+00 0.  1.
       21   -1    0    0  501  504  0.00000000000E+00  0.00000000000E+00 -0.15647721226E+04  0.15647721226E+04  0.00000000000E+00 0.  1.
        6    1    1    2  501    0 -0.11398722918E+03 -0.29539298130E+03 -0.37886660119E+03  0.52318161599E+03  0.17300000000E+03 0.  1.
       -6    1    1    2    0  502 -0.18903520045E+01  0.24619427875E+03 -0.36523140172E+03  0.47322106158E+03  0.17300000000E+03 0.  1.
        6    1    1    2  502    0  0.14900042803E+03  0.26227331735E+02 -0.41163003791E+03  0.47144171282E+03  0.17300000000E+03 0.  1.
       -6    1    1    2    0  503 -0.33122846837E+02  0.22971370815E+02 -0.22180451909E+03  0.28416729500E+03  0.17300000000E+03 0.  1.
</event>
<event>
 6   0  0.4500850E-05  0.3590607E+03  0.7546771E-02  0.1065309E+00
       21   -1    0    0  504  503  0.00000000000E+00  0.00000000000E+00  0.14370847616E+04  0.14370847616E+04  0.00000000000E+00 0.  1.
       21   -1    0    0  501  504  0.00000000000E+00  0.00000000000E+00 -0.65945378800E+03  0.65945378800E+03  0.00000000000E+00 0.  1.
        6    1    1    2  501    0  0.11939838185E+03 -0.13653488381E+03 -0.70494836949E+02  0.26037716897E+03  0.17300000000E+03 0. -1.
       -6    1    1    2    0  502 -0.39373324291E+03  0.15135047638E+03  0.33473202691E+02  0.45714580669E+03  0.17300000000E+03 0.  1.
        6    1    1    2  502    0 -0.12196579117E+03 -0.20791628495E+03  0.85374401394E+03  0.90383221734E+03  0.17300000000E+03 0. -1.
       -6    1    1    2    0  503  0.39630065223E+03  0.19310069238E+03 -0.39091406090E+02  0.47518335659E+03  0.17300000000E+03 0.  1.
</event>
<event>
 6   0  0.4500850E-05  0.5025838E+03  0.7546771E-02  0.1028879E+00
       21   -1    0    0  501  503  0.00000000000E+00  0.00000000000E+00  0.68230491072E+03  0.68230491072E+03  0.00000000000E+00 0. -1.
       21   -1    0    0  502  504  0.00000000000E+00  0.00000000000E+00 -0.15930108298E+04  0.15930108298E+04  0.00000000000E+00 0. -1.
        6    1    1    2  501    0 -0.23504074088E+03  0.22558514974E+03 -0.52503022605E+03  0.64165298092E+03  0.17300000000E+03 0.  1.
       -6    1    1    2    0  503  0.45168094558E+03 -0.24145243433E+03  0.33643015312E+03  0.63673322716E+03  0.17300000000E+03 0. -1.
        6    1    1    2  502    0 -0.15783719111E+03  0.26886601416E+03 -0.49902028215E+03  0.61331211831E+03  0.17300000000E+03 0. -1.
       -6    1    1    2    0  504 -0.58803013589E+02 -0.25299872957E+03 -0.22308556402E+03  0.38361741416E+03  0.17300000000E+03 0.  1.
</event>
<event>
 6   0  0.4500850E-05  0.9457429E+03  0.7546771E-02  0.9738790E-01
       21   -1    0    0  502  503  0.00000000000E+00  0.00000000000E+00  0.10599569016E+04  0.10599569016E+04  0.00000000000E+00 0. -1.
       21   -1    0    0  503  504  0.00000000000E+00  0.00000000000E+00 -0.10790365193E+04  0.10790365193E+04  0.00000000000E+00 0.  1.
        6    1    1    2  501    0 -0.22081741607E+03  0.79371523651E+03  0.21496806221E+03  0.86884088053E+03  0.17300000000E+03 0. -1.
       -6    1    1    2    0  501  0.35944966828E+03 -0.49079934896E+03 -0.88584004336E+02  0.63864245927E+03  0.17300000000E+03 0.  1.
        6    1    1    2  502    0  0.45806817445E+02 -0.22655152510E+03 -0.21309409575E+03  0.35883415625E+03  0.17300000000E+03 0. -1.
       -6    1    1    2    0  504 -0.18443906966E+03 -0.76364362456E+02  0.67630420216E+02  0.27267592488E+03  0.17300000000E+03 0.  1.
</event>
<event>
 6   0  0.4500850E-05  0.4111207E+03  0.7546771E-02  0.1039996E+00
        2   -1    0    0  503    0  0.00000000000E+00  0.00000000000E+00  0.90016124150E+03  0.90016124150E+03  0.00000000000E+00 0.  1.
       -2   -1    0    0    0  501  0.00000000000E+00  0.00000000000E+00 -0.21606389631E+04  0.21606389631E+04  0.00000000000E+00 0. -1.
        6    1    1    2  502    0  0.19364691445E+02 -0.63870605439E+02 -0.19242808044E+04  0.19331942633E+04  0.17300000000E+03 0. -1.
       -6    1    1    2    0  501  0.64739161879E+02 -0.44022291758E+02 -0.66523630966E+02  0.20120515582E+03  0.17300000000E+03 0.  1.
        6    1    1    2  503    0  0.89551326622E+02 -0.10320560136E+03  0.43819056171E+03  0.49052095228E+03  0.17300000000E+03 0. -1.
       -6    1    1    2    0  502 -0.17365517995E+03  0.21109849855E+03  0.29213615207E+03  0.43587983317E+03  0.17300000000E+03 0.  1.
</event>
<event>
 6   0  0.4500850E-05  0.1152290E+04  0.7546771E-02  0.9338505E-01
       -2   -1    0    0    0  501  0.00000000000E+00  0.00000000000E+00  0.67628482941E+03  0.67628482941E+03  0.00000000000E+00 0. -1.
        2   -1    0    0  502    0  0.00000000000E+00  0.00000000000E+00 -0.22360914520E+04  0.22360914520E+04  0.00000000000E+00 0.  1.
        6    1    1    2  502    0  0.33735165492E+03  0.42166858604E+03  0.19340483484E+03  0.59912015963E+03  0.17300000000E+03 0.  1.
       -6    1    1    2    0  503 -0.67451639712E+01 -0.55002038802E+02 -0.13926613538E+04  0.14044591016E+04  0.17300000000E+03 0.  1.
        6    1    1    2  503    0  0.11837537013E+03 -0.10338919559E+03 -0.26275315068E+03  0.35166784358E+03  0.17300000000E+03 0.  1.
       -6    1    1    2    0  501 -0.44898186108E+03 -0.26327735165E+03 -0.97796952938E+02  0.55712917665E+03  0.17300000000E+03 0. -1.
</event>
<event>
 6   0  0.4500850E-05  0.4271389E+03  0.7546771E-02  0.1060727E+00
       21   -1    0    0  504  503  0.00000000000E+00  0.00000000000E+00  0.71193923949E+03  0.71193923949E+03  0.00000000000E+00 0. -1.
       21   -1    0    0  502  504  0.00000000000E+00  0.00000000000E+00 -0.41338738556E+03  0.41338738556E+03  0.00000000000E+00 0. -1.
        6    1    1    2  501    0  0.10301062476E+03 -0.25661010330E+02  0.18401935979E+03  0.27397408827E+03  0.17300000000E+03 0. -1.
       -6    1    1    2    0  503  0.66941923003E+02  0.16982646356E+03  0.28802551618E+03  0.38237409267E+03  0.17300000000E+03 0. -1.
        6    1    1    2  502    0 -0.84495120459E+02 -0.90852584997E+02 -0.16370233466E+03  0.26855366680E+03  0.17300000000E+03 0.  1.
       -6    1    1    2    0  501 -0.85457427301E+02 -0.53312868233E+02 -0.97906873816E+01  0.20042477731E+03  0.17300000000E+03 0. -1.
</event>
<event>
 6   0  0.4500850E-05  0.7494513E+03  0.7546771E-02  0.9980902E-01
       21   -1    0    0  501  503  0.00000000000E+00  0.00000000000E+00  0.12643464381E+04  0.12643464381E+04  0.00000000000E+00 0. -1.
       21   -1    0    0  502  504  0.00000000000E+00  0.00000000000E+00 -0.84985141878E+03  0.84985141878E+03  0.00000000000E+00 0.  1.
        6    1    1    2  501    0  0.15725030063E+03  0.12066525894E+02  0.75926470982E+02  0.24610381364E+03  0.17300000000E+03 0. -1.
       -6    1    1    2    0  503 -0.59480409634E+03  0.21462999172E+03  0.61438813243E+03  0.89847633449E+03  0.17300000000E+03 0. -1.
        6    1    1    2  502    0 -0.11757398596E+03  0.74442858799E+02 -0.21978709123E+03  0.31241118237E+03  0.17300000000E+03 0.  1.
       -6    1    1    2    0  504  0.55512778168E+03 -0.30113937641E+03 -0.56032492873E+02  0.65720652635E+03  0.17300000000E+03 0.  1.
</event>
<event>
 6   0  0.4500850E-05  0.7444837E+03  0.7546771E-02  0.9755893E-01
       21   -1    0    0  504  503  0.00000000000E+00  0.00000000000E+00  0.38345793309E+03  0.38345793309E+03  0.00000000000E+00 0. -1.
       21   -1    0    0  501  504  0.00000000000E+00  0.00000000000E+00 -0.11362009266E+04  0.11362009266E+04  0.00000000000E+00 0. -1.
        6    1    1    2  501    0 -0.14801232865E+03 -0.90875321249E+02 -0.75322111952E+02  0.25645349285E+03  0.17300000000E+03 0. -1.
       -6    1    1    2    0  503 -0.22284728782E+03  0.36952019035E+02 -0.13197714747E+03  0.31364523407E+03  0.17300000000E+03 0. -1.
        6    1    1    2  502    0  0.47667887340E+03  0.67864261587E+02 -0.54329176728E+03  0.74627290635E+03  0.17300000000E+03 0. -1.
       -6    1    1    2    0  502 -0.10581925693E+03 -0.13940959373E+02 -0.21519668559E+01  0.20328722647E+03  0.17300000000E+03 0.  1.
</event>
<event>
 6   0  0.4500850E-05  0.2438568E+03  0.7546771E-02  0.1128107E+00
       21   -1    0    0  502  503  0.00000000000E+00  0.00000000000E+00  0.21895587506E+03  0.21895587506E+03  0.00000000000E+00 0.  1.
       21   -1    0    0  503  504  0.00000000000E+00  0.00000000000E+00 -0.10651087050E+04  0.10651087050E+04  0.00000000000E+00 0. -1.
        6    1    1    2  501    0  0.51089907042E+02 -0.64577766055E+02 -0.24228118599E+03  0.30888450844E+03  0.17300000000E+03 0.  1.
       -6    1    1    2    0  501 -0.22265311618E+03  0.16243466490E+02 -0.29290140490E+03  0.40688879726E+03  0.17300000000E+03 0. -1.
        6    1    1    2  502    0  0.15149563365E+03 -0.17295939436E+02 -0.31827223401E+02  0.23279185700E+03  0.17300000000E+03 0.  1.
       -6    1    1    2    0  504  0.20067575481E+02  0.65630239001E+02 -0.27914301566E+03  0.33549941736E+03  0.17300000000E+03 0. -1.
</event>
<event>
 6   0  0.4500850E-05  0.2137732E+03  0.7546771E-02  0.1142605E+00
       21   -1    0    0  502  503  0.00000000000E+00  0.00000000000E+00  0.13404651563E+04  0.13404651563E+04  0.00000000000E+00 0.  1.
       21   -1    0    0  501  504  0.00000000000E+00  0.00000000000E+00 -0.25132035601E+03  0.25132035601E+03  0.00000000000E+00 0. -1.
        6    1    1    2  501    0  0.10895099031E+02 -0.78886722856E+02  0.27586337448E+03  0.33521846549E+03  0.17300000000E+03 0. -1.
       -6    1    1    2    0  503  0.11169917311E+03 -0.43103935989E+02 -0.10940141367E+03  0.23713355706E+03  0.17300000000E+03 0. -1.
        6    1    1    2  502    0  0.12692762650E+02 -0.24080237353E+01  0.28542647916E+03  0.33401224499E+03  0.17300000000E+03 0.  1.
       -6    1    1    2    0  504 -0.13528703480E+03  0.12439868258E+03  0.63725636034E+03  0.68542124478E+03  0.17300000000E+03 0.  1.
</event>
<event>
 6   0  0.4500850E-05  0.3331849E+03  0.7546771E-02  0.1074745E+00
       21   -1    0    0  501  503  0.00000000000E+00  0.00000000000E+00  0.38751910457E+03  0.38751910457E+03  0.00000000000E+00 0.  1.
       21   -1    0    0  502  504  0.00000000000E+00  0.00000000000E+00 -0.23835353673E+04  0.23835353673E+04  0.00000000000E+00 0.  1.
        6    1    1    2  501    0  0.29787133956E+03 -0.33305499118E+03 -0.72255390340E+03  0.86698679655E+03  0.17300000000E+03 0.  1.
       -6    1    1    2    0  503 -0.16931466341E+03  0.34896598576E+02 -0.35954671862E+03  0.43484258153E+03  0.17300000000E+03 0. -1.
        6    1    1    2  502    0 -0.21681224694E+03  0.96977815787E+02  0.17700735526E+03  0.34303476645E+03  0.17300000000E+03 0.  1.
       -6    1    1    2    0  504  0.88255570802E+02  0.20118057682E+03 -0.10909229960E+04  0.11261903274E+04  0.17300000000E+03 0. -1.
</event>
<event>
 6   0  0.4500850E-05  0.2783451E+03  0.7546771E-02  0.1102672E+00
       21   -1    0    0  502  503  0.00000000000E+00  0.00000000000E+00  0.26205832808E+04  0.26205832808E+04  0.00000000000E+00 0.  1.
       21   -1    0    0  503  504  0.00000000000E+00  0.00000000000E+00 -0.59167077552E+03  0.59167077552E+03  0.00000000000E+00 0.  1.
        6    1    1    2  501    0 -0.34049524324E+02  0.25791677826E+03 -0.25862812521E+03  0.40558345845E+03  0.17300000000E+03 0. -1.
       -6    1    1    2    0  504  0.17963584908E+03 -0.27693226668E+02 -0.15797221142E+03  0.29651336000E+03  0.17300000000E+03 0.  1.
        6    1    1    2  502    0 -0.67284157263E+02 -0.13352436717E+03  0.20333324436E+04  0.20461490025E+04  0.17300000000E+03 0.  1.
       -6    1    1    2    0  501 -0.78302167497E+02 -0.96699184419E+02  0.41218039840E+03  0.46400823541E+03  0.17300000000E+03 0. -1.
</event>
<event>
 6   0  0.4500850E-05  0.2610564E+03  0.7546771E-02  0.1109085E+00
       21   -1    0    0  501  503  0.00000000000E+00  0.00000000000E+00  0.98489580041E+03  0.98489580041E+03  0.00000000000E+00 0. -1.
       21   -1    0    0  502  504  0.00000000000E+00  0.00000000000E+00 -0.11792016899E+04  0.11792016899E+04  0.00000000000E+00 0. -1.
        6    1    1    2  501    0  0.50985462739E+02  0.11635122185E+03 -0.50157854320E+03  0.54557048970E+03  0.17300000000E+03 0. -1.
       -6    1    1    2    0  504 -0.30122167544E+03 -0.62417446925E+02 -0.48309895643E+03  0.59828424443E+03  0.17300000000E+03 0. -1.
        6    1    1    2  502    0  0.31926457548E+03  0.14276033448E+02  0.24073521422E+03  0.43590838218E+03  0.17300000000E+03 0. -1.
       -6    1    1    2    0  503 -0.69028362772E+02 -0.68209808370E+02  0.54963639596E+03  0.58433437396E+03  0.17300000000E+03 0. -1.
</event>
<event>
 6   0  0.4500850E-05  0.2230090E+03  0.7546771E-02  0.1132493E+00
       21   -1    0    0  501  503  0.00000000000E+00  0.00000000000E+00  0.41166948335E+03  0.41166948335E+03  0.00000000000E+00 0.  1.
       21   -1    0    0  502  504  0.00000000000E+00  0.00000000000E+00 -0.76794028753E+03  0.76794028753E+03  0.00000000000E+00 0. -1.
        6    1    1    2  501    0 -0.13833818124E+03 -0.41631557851E+02 -0.26182339358E+03  0.34547232657E+03  0.17300000000E+03 0.  1.
       -6    1    1    2    0  504  0.78752653956E+02  0.12994494474E+03 -0.20651635294E+03  0.30929867960E+03  0.17300000000E+03 0. -1.
        6    1    1    2  502    0  0.37291516221E+02 -0.21456514569E+03 -0.80982507027E+01  0.27825067941E+03  0.17300000000E+03 0.  1.
       -6    1    1    2    0  503  0.22294011063E+02  0.12625175880E+03  0.12016719305E+03  0.24658808531E+03  0.17300000000E+03 0.  1.
</event>
<event>
 6   0  0.4500850E-05  0.4580262E+03  0.7546771E-02  0.1025355E+00
       -2   -1    0    0    0  501  0.00000000000E+00  0.00000000000E+00  0.75150796154E+03  0.75150796154E+03  0.00000000000E+00 0. -1.
        2   -1    0    0  503    0  0.00000000000E+00  0.00000000000E+00 -0.41581594443E+03  0.41581594443E+03  0.00000000000E+00 0.  1.
        6    1    1    2  502    0  0.97372289462E+02 -0.58688305443E+02  0.10444558113E+03  0.23186970343E+03  0.17300000000E+03 0.  1.
       -6    1    1    2    0  501  0.62714723828E+02 -0.11358945966E+03 -0.42867512536E+02  0.22045935127E+03  0.17300000000E+03 0.  1.
        6    1    1    2  503    0  0.79231749538E+02  0.15555425506E+03 -0.75447479568E+02  0.25709165404E+03  0.17300000000E+03 0.  1.
       -6    1    1    2    0  502 -0.23931876283E+03  0.16723510039E+02  0.34956142808E+03  0.45790319723E+03  0.17300000000E+03 0. -1.
</event>
<event>
 6   0  0.4500850E-05  0.3152001E+03  0.7546771E-02  0.1095762E+00
       21   -1    0    0  501  503  0.00000000000E+00  0.00000000000E+00  0.54932127492E+03  0.54932127492E+03  0.00000000000E+00 0.  1.
       21   -1    0    0  503  504  0.00000000000E+00  0.00000000000E+00 -0.11609338677E+04  0.11609338677E+04  0.00000000000E+00 0. -1.
        6    1    1    2  501    0  0.87531967910E+02  0.28051710899E+02  0.23367003011E+03  0.30492528079E+03  0.17300000000E+03 0.  1.
       -6    1    1    2    0  502 -0.11426714528E+03  0.10718956694E+01  0.11830590672E+03  0.23871199596E+03  0.17300000000E+03 0.  1.
        6    1    1    2  502    0  0.24564524629E+03  0.11247738980E+03 -0.33145616216E+03  0.46128617764E+03  0.17300000000E+03 0. -1.
       -6    1    1    2    0  504 -0.21891006892E+03 -0.14160099637E+03 -0.63213236747E+03  0.70533168825E+03  0.17300000000E+03 0. -1.
</event>
<event>
 6   0  0.4500850E-05  0.2375565E+03  0.7546771E-02  0.1121994E+00
       21   -1    0    0  501  503  0.00000000000E+00  0.00000000000E+00  0.18134322573E+04  0.18134322573E+04  0.00000000000E+00 0.  1.
       21   -1    0    0  503  504  0.00000000000E+00  0.00000000000E+00 -0.27425925693E+03  0.27425925693E+03  0.00000000000E+00 0.  1.
        6    1    1    2  501    0 -0.87644159716E+02  0.17243361050E+03  0.98790921566E+03  0.10214247242E+04  0.17300000000E+03 0.  1.
       -6    1    1    2    0  504  0.87395076257E+02  0.33367703459E+02 -0.11770561265E+03  0.22920496120E+03  0.17300000000E+03 0.  1.
        6    1    1    2  502    0  0.11329811389E+03 -0.20833044242E+03  0.34752338535E+03  0.45490607735E+03  0.17300000000E+03 0.  1.
       -6    1    1    2    0  502 -0.11304903043E+03  0.25291284602E+01  0.32144601202E+03  0.38215575151E+03  0.17300000000E+03 0.  1.
</event>
<event>
 6   0  0.4500850E-05  0.2308663E+03  0.7546771E-02  0.1130687E+00
       21   -1    0    0  501  503  0.00000000000E+00  0.00000000000E+00  0.88404147068E+03  0.88404147068E+03  0.00000000000E+00 0. -1.
       21   -1    0    0  502  504  0.00000000000E+00  0.00000000000E+00 -0.69399066193E+03  0.69399066193E+03  0.00000000000E+00 0. -1.
        6    1    1    2  501    0  0.37494708287E+02 -0.25027175932E+03  0.45812910310E+03  0.55122870187E+03  0.17300000000E+03 0. -1.
       -6    1    1    2    0  504 -0.11894903903E+03  0.85322772187E+02 -0.40669659852E+03  0.46557488397E+03  0.17300000000E+03 0. -1.
        6    1    1    2  502    0 -0.56437009255E+02  0.94172398337E+02  0.23320610777E+03  0.31043141807E+03  0.17300000000E+03 0.  1.
       -6    1    1    2    0  503  0.13789134000E+03  0.70776588792E+02 -0.94587803606E+02  0.25079712869E+03  0.17300000000E+03 0. -1.
</event>
<event>
 6   0  0.4500850E-05  0.3279782E+03  0.7546771E-02  0.1090696E+00
       21   -1    0    0  501  503  0.00000000000E+00  0.00000000000E+00  0.45515335787E+03  0.45515335787E+03  0.00000000000E+00 0.  1.
       21   -1    0    0  502  504  0.00000000000E+00  0.00000000000E+00 -0.93722479097E+03  0.93722479097E+03  0.00000000000E+00 0.  1.
        6    1    1    2  501    0  0.25819044258E+03  0.81957193758E+02 -0.28883490265E+03  0.43212716558E+03  0.17300000000E+03 0. -1.
       -6    1    1    2    0  503 -0.23609944109E+03 -0.18551834876E+03 -0.19843674750E+03  0.39933212564E+03  0.17300000000E+03 0.  1.
        6    1    1    2  502    0 -0.11874234140E+03  0.89798754293E+02 -0.17896595394E+03  0.29003684694E+03  0.17300000000E+03 0. -1.
       -6    1    1    2    0  504  0.96651339905E+02  0.13762400707E+02  0.18416617098E+03  0.27088201068E+03  0.17300000000E+03 0.  1.
</event>
<event>
 6   0  0.4500850E-05  0.3247029E+03  0.7546771E-02  0.1090256E+00
       21   -1    0    0  504  503  0.00000000000E+00  0.00000000000E+00  0.12665465845E+04  0.12665465845E+04  0.00000000000E+00 0. -1.
       21   -1    0    0  502  504  0.00000000000E+00  0.00000000000E+00 -0.54987265594E+03  0.54987265594E+03  0.00000000000E+00 0.  1.
        6    1    1    2  501    0  0.25693487545E+03 -0.84893799528E+02  0.23819190451E+02  0.32205409678E+03  0.17300000000E+03 0. -1.
       -6    1    1    2    0  503  0.67331711928E+02  0.91833317547E+02  0.72309404801E+03  0.75217080501E+03  0.17300000000E+03 0. -1.
        6    1    1    2  502    0 -0.12968826576E+03  0.27206175323E+03 -0.82072105177E+02  0.35707348584E+03  0.17300000000E+03 0.  1.
       -6    1    1    2    0  501 -0.19457832162E+03 -0.27900127125E+03  0.51832795288E+02  0.38512085281E+03  0.17300000000E+03 0.  1.
</event>
<event>
 6   0  0.4500850E-05  0.3508474E+03  0.7546771E-02  0.1076725E+00
       21   -1    0    0  504  503  0.00000000000E+00  0.00000000000E+00  0.79089223876E+03  0.79089223876E+03  0.00000000000E+00 0. -1.
       21   -1    0    0  502  504  0.00000000000E+00  0.00000000000E+00 -0.47096135453E+03  0.47096135453E+03  0.00000000000E+00 0.  1.
        6    1    1    2  501    0 -0.12481991365E+03 -0.38027108519E+01  0.14963643596E+03  0.26060417192E+03  0.17300000000E+03 0. -1.
       -6    1    1    2    0  501 -0.74329471405E+02 -0.11060907309E+03  0.13345058145E+03  0.25592439325E+03  0.17300000000E+03 0. -1.
        6    1    1    2  502    0 -0.29249724537E+02  0.78060511812E+02 -0.26519293049E+03  0.32742217438E+03  0.17300000000E+03 0.  1.
       -6    1    1    2    0  503  0.22839910960E+03  0.36351272125E+02  0.30203679730E+03  0.41790285375E+03  0.17300000000E+03 0. -1.
</event>
<event>
 6   0  0.4500850E-05  0.6240879E+03  0.7546771E-02  0.9865619E-01
       -2   -1    0    0    0  501  0.00000000000E+00  0.00000000000E+00  0.16447719618E+04  0.16447719618E+04  0.00000000000E+00 0. -1.
        2   -1    0    0  503    0  0.00000000000E+00  0.00000000000E+00 -0.23229938865E+03  0.23229938865E+03  0.00000000000E+00 0.  1.
        6    1    1    2  502    0 -0.13010847581E+03 -0.10789198060E+03  0.32982683065E+03  0.40900321902E+03  0.17300000000E+03 0.  1.
       -6    1    1    2    0  501 -0.17291173811E+03  0.26963650659E+03  0.45826345162E+03  0.58526635471E+03  0.17300000000E+03 0. -1.
        6    1    1    2  503    0  0.14477622998E+03 -0.23331713946E+03  0.16965818504E+03  0.36621024574E+03  0.17300000000E+03 0.  1.
       -6    1    1    2    0  502  0.15824398394E+03  0.71572613469E+02  0.45472410584E+03  0.51659153099E+03  0.17300000000E+03 0. -1.
</event>
<event>
 6   0  0.4500850E-05  0.2100273E+03  0.7546771E-02  0.1141921E+00
       21   -1    0    0  502  503  0.00000000000E+00  0.00000000000E+00  0.67083654036E+03  0.67083654036E+03  0.00000000000E+00 0.  1.
       21   -1    0    0  501  504  0.00000000000E+00  0.00000000000E+00 -0.13260229841E+04  0.13260229841E+04  0.00000000000E+00 0. -1.
        6    1    1    2  501    0 -0.55149464541E+02 -0.80029076330E+01 -0.63688111613E+03  0.66230813527E+03  0.17300000000E+03 0. -1.
       -6    1    1    2    0  504  0.11415442433E+03 -0.91170846297E+02 -0.28649727872E+02  0.22823926638E+03  0.17300000000E+03 0.  1.
        6    1    1    2  502    0  0.19163878906E+02 -0.45173281769E+02  0.51643390712E+03  0.54684628559E+03  0.17300000000E+03 0.  1.
       -6    1    1    2    0  503 -0.78168838698E+02  0.14434703570E+03 -0.50608950681E+03  0.55946583718E+03  0.17300000000E+03 0. -1.
</event>
<event>
 6   0  0.4500850E-05  0.2326992E+03  0.7546771E-02  0.1136091E+00
       21   -1    0    0  501  503  0.00000000000E+00  0.00000000000E+00  0.15599673997E+04  0.15599673997E+04  0.00000000000E+00 0.  1.
       21   -1    0    0  502  504  0.00000000000E+00  0.00000000000E+00 -0.18866042230E+03  0.18866042230E+03  0.00000000000E+00 0.  1.
        6    1    1    2  501    0 -0.10384823865E+03 -0.11612972941E+03  0.89995284857E+03  0.92957770002E+03  0.17300000000E+03 0. -1.
       -6    1    1    2    0  504 -0.73323972316E+02  0.16447294810E+03  0.19816153544E+03  0.31878637001E+03  0.17300000000E+03 0.  1.
        6    1    1    2  502    0  0.24578275695E+02  0.87478020873E+01  0.73141556606E+02  0.18962938322E+03  0.17300000000E+03 0. -1.
       -6    1    1    2    0  503  0.15259393527E+03 -0.57091020777E+02  0.20005103678E+03  0.31063436875E+03  0.17300000000E+03 0.  1.
</event>
<event>
 6   0  0.4500850E-05  0.5174667E+03  0.7546771E-02  0.1012467E+00
        1   -1    0    0  503    0  0.00000000000E+00  0.00000000000E+00  0.38211879716E+04  0.38211879716E+04  0.00000000000E+00 0.  1.
       -1   -1    0    0    0  501  0.00000000000E+00  0.00000000000E+00 -0.83430558977E+02  0.83430558977E+02  0.00000000000E+00 0. -1.
        6    1    1    2  502    0 -0.21269740820E+02  0.58083057473E+01  0.15633462250E+03  0.23421283586E+03  0.17300000000E+03 0. -1.
       -6    1    1    2    0  502  0.12677893333E+03 -0.33870091546E+02  0.95298800261E+03  0.97741250972E+03  0.17300000000E+03 0.  1.
        6    1    1    2  503    0 -0.10767650374E+03  0.20604528636E+03  0.19327264318E+04  0.19543309212E+04  0.17300000000E+03 0.  1.
       -6    1    1    2    0  501  0.21673112240E+01 -0.17798350056E+03  0.69570835578E+03  0.73866226384E+03  0.17300000000E+03 0. -1.
</event>
<event>
 6   0  0.4500850E-05  0.2056629E+03  0.7546771E-02  0.1146852E+00
       21   -1    0    0  504  503  0.00000000000E+00  0.00000000000E+00  0.31854287332E+04  0.31854287332E+04  0.00000000000E+00 0.  1.
       21   -1    0    0  502  504  0.00000000000E+00  0.00000000000E+00 -0.49989559760E+03  0.49989559760E+03  0.00000000000E+00 0.  1.
        6    1    1    2  501    0 -0.79308785901E+02  0.10650236871E+03  0.32544275662E+03  0.39175837693E+03  0.17300000000E+03 0.  1.
       -6    1    1    2    0  501  0.33434392144E+02 -0.62091848023E+02  0.26868038652E+03  0.32724823341E+03  0.17300000000E+03 0. -1.
        6    1    1    2  502    0  0.11295541836E+03 -0.17937855704E+03 -0.38885024316E+03  0.47546724900E+03  0.17300000000E+03 0.  1.
       -6    1    1    2    0  503 -0.67081024604E+02  0.13496803635E+03  0.24802602357E+04  0.24908504715E+04  0.17300000000E+03 0.  1.
</event>
<event>
 6   0  0.4500850E-05  0.2503695E+03  0.7546771E-02  0.1126833E+00
       21   -1    0    0  501  503  0.00000000000E+00  0.00000000000E+00  0.20865416072E+03  0.20865416072E+03  0.00000000000E+00 0.  1.
       21   -1    0    0  502  504  0.00000000000E+00  0.00000000000E+00 -0.21417230322E+04  0.21417230322E+04  0.00000000000E+00 0.  1.
        6    1    1    2  501    0  0.27701972550E+02 -0.28201263651E+02 -0.86194628977E+03  0.88002449795E+03  0.17300000000E+03 0.  1.
       -6    1    1    2    0  503  0.15419747562E+03 -0.66410028898E+02 -0.26673956236E+03  0.35953601705E+03  0.17300000000E+03 0. -1.
        6    1    1    2  502    0 -0.95899166358E+02 -0.15359718923E+03 -0.35835312195E+01  0.25046075210E+03  0.17300000000E+03 0.  1.
       -6    1    1    2    0  504 -0.86000281811E+02  0.24820848178E+03 -0.80079948812E+03  0.86035592581E+03  0.17300000000E+03 0.  1.
</event>
<event>
 6   0  0.4500850E-05  0.8379664E+03  0.7546771E-02  0.9953604E-01
       21   -1    0    0  502  503  0.00000000000E+00  0.00000000000E+00  0.45205791487E+03  0.45205791487E+03  0.00000000000E+00 0.  1.
       21   -1    0    0  501  504  0.00000000000E+00  0.00000000000E+00 -0.19220738595E+04  0.19220738595E+04  0.00000000000E+00 0.  1.
        6    1    1    2  501    0 -0.61879575884E+01  0.58086618881E+02 -0.13485202921E+03  0.22699430806E+03  0.17300000000E+03 0.  1.
       -6    1    1    2    0  504  0.46958288306E+03 -0.88030433419E+02 -0.36966915993E+03  0.62836432829E+03  0.17300000000E+03 0.  1.
        6    1    1    2  502    0  0.31520998579E+03 -0.71623061012E+02 -0.26469639953E+03  0.45219507066E+03  0.17300000000E+03 0.  1.
       -6    1    1    2    0  503 -0.77860491126E+03  0.10156687555E+03 -0.70079835603E+03  0.10665780674E+04  0.17300000000E+03 0.  1.
</event>
<event>
 6   0  0.4500850E-05  0.3223697E+03  0.7546771E-02  0.1083616E+00
       21   -1    0    0  502  503  0.00000000000E+00  0.00000000000E+00  0.36331574509E+03  0.36331574509E+03  0.00000000000E+00 0.  1.
       21   -1    0    0  501  504  0.00000000000E+00  0.00000000000E+00 -0.16263080580E+04  0.16263080580E+04  0.00000000000E+00 0.  1.
        6    1    1    2  501    0 -0.16384030535E+03 -0.27869377037E+03 -0.30170377057E+03  0.47483473807E+03  0.17300000000E+03 0.  1.
       -6    1    1    2    0  503  0.75290389827E+02  0.14229234792E+03 -0.52047645110E+03  0.57161218603E+03  0.17300000000E+03 0.  1.
        6    1    1    2  502    0  0.36481450859E+03  0.16539646783E+03 -0.58964190433E+02  0.44028558119E+03  0.17300000000E+03 0. -1.
       -6    1    1    2    0  504 -0.27626459307E+03 -0.28995045381E+02 -0.38184790081E+03  0.50289129779E+03  0.17300000000E+03 0. -1.
</event>
<event>
 6   0  0.4500850E-05  0.3814023E+03  0.7546771E-02  0.1054972E+00
       21   -1    0    0  501  503  0.00000000000E+00  0.00000000000E+00  0.11166511376E+04  0.11166511376E+04  0.00000000000E+00 0.  1.
       21   -1    0    0  502  504  0.00000000000E+00  0.00000000000E+00 -0.84967107845E+03  0.84967107845E+03  0.00000000000E+00 0. -1.
        6    1    1    2  501    0  0.23205256887E+03  0.81718376467E+02  0.50160922023E+03  0.58486502511E+03  0.17300000000E+03 0.  1.
       -6    1    1    2    0  503 -0.94244493972E+02 -0.17805656314E+03  0.27126721517E+03  0.37960646247E+03  0.17300000000E+03 0. -1.
        6    1    1    2  502    0 -0.24089864441E+03 -0.31395082771E+02 -0.65561980427E+03  0.72026671161E+03  0.17300000000E+03 0. -1.
       -6    1    1    2    0  504  0.10309056951E+03  0.12773326945E+03  0.14972342798E+03  0.28158401683E+03  0.17300000000E+03 0.  1.
</event>
<event>
 6   0  0.4500850E-05  0.4946381E+03  0.7546771E-02  0.1037043E+00
       21   -1    0    0  502  503  0.00000000000E+00  0.00000000000E+00  0.43505694825E+03  0.43505694825E+03  0.00000000000E+00 0.  1.
       21   -1    0    0  501  504  0.00000000000E+00  0.00000000000E+00 -0.94723767892E+03  0.94723767892E+03  0.00000000000E+00 0.  1.
        6    1    1    2  501    0 -0.15355036151E+02 -0.18983483674E+03 -0.44622062198E+03  0.51508726043E+03  0.17300000000E+03 0. -1.
       -6    1    1    2    0  503 -0.53492564061E+02  0.29543037149E+03  0.97279498236E+02  0.35990673734E+03  0.17300000000E+03 0.  1.
        6    1    1    2  502    0 -0.16434365571E+02  0.96034719419E+02 -0.41340209697E+02  0.20280722039E+03  0.17300000000E+03 0. -1.
       -6    1    1    2    0  504  0.85281965783E+02 -0.20163025416E+03 -0.12189939723E+03  0.30449340900E+03  0.17300000000E+03 0.  1.
</event>
<event>
 6   0  0.4500850E-05  0.2106677E+03  0.7546771E-02  0.1144772E+00
       21   -1    0    0  501  503  0.00000000000E+00  0.00000000000E+00  0.11322327069E+04  0.11322327069E+04  0.00000000000E+00 0.  1.
       21   -1    0    0  503  504  0.00000000000E+00  0.00000000000E+00 -0.26640659162E+03  0.26640659162E+03  0.00000000000E+00 0.  1.
        6    1    1    2  501    0 -0.77962931963E+02 -0.74949173841E+02  0.66994766932E+03  0.70032455123E+03  0.17300000000E+03 0.  1.
       -6    1    1    2    0  504  0.11432644116E+03  0.33591867676E+02  0.72443978611E+02  0.22220728782E+03  0.17300000000E+03 0. -1.
        6    1    1    2  502    0 -0.26360652670E+02  0.11269278805E+03 -0.57164544518E+02  0.21585025744E+03  0.17300000000E+03 0.  1.
       -6    1    1    2    0  502 -0.10002856527E+02 -0.71335481890E+02  0.18059901182E+03  0.26025720199E+03  0.17300000000E+03 0. -1.
</event>
<event>
 6   0  0.4500850E-05  0.5990073E+03  0.7546771E-02  0.1025286E+00
       21   -1    0    0  501  503  0.00000000000E+00  0.00000000000E+00  0.49348872393E+03  0.49348872393E+03  0.00000000000E+00 0. -1.
       21   -1    0    0  503  504  0.00000000000E+00  0.00000000000E+00 -0.11763317622E+04  0.11763317622E+04  0.00000000000E+00 0.  1.
        6    1    1    2  501    0 -0.13586463585E+02 -0.47815735756E+02 -0.19182295821E+03  0.26305129514E+03  0.17300000000E+03 0. -1.
       -6    1    1    2    0  502  0.10897582896E+03 -0.37126216712E+03 -0.62220608758E+03  0.75284841998E+03  0.17300000000E+03 0.  1.
        6    1    1    2  502    0  0.11114483128E+02  0.39023000732E+03  0.13760231506E+03  0.44862722549E+03  0.17300000000E+03 0. -1.
       -6    1    1    2    0  504 -0.10650384850E+03  0.28847895564E+02 -0.64163075279E+01  0.20529354551E+03  0.17300000000E+03 0.  1.
</event>
<event>
 6   0  0.4500850E-05  0.2181755E+03  0.7546771E-02  0.1140678E+00
       21   -1    0    0  502  503  0.00000000000E+00  0.00000000000E+00  0.10655950230E+04  0.10655950230E+04  0.00000000000E+00 0.  1.
       21   -1    0    0  503  504  0.00000000000E+00  0.00000000000E+00 -0.48444325990E+03  0.48444325990E+03  0.00000000000E+00 0.  1.
        6    1    1    2  501    0 -0.97095159652E+01  0.11297937355E+03 -0.98312538437E+02  0.22902613118E+03  0.17300000000E+03 0. -1.
       -6    1    1    2    0  504 -0.12539978478E+03 -0.57535691578E+02 -0.21830434255E+03  0.31083958532E+03  0.17300000000E+03 0.  1.
        6    1    1    2  502    0  0.19176203549E+03 -0.65178728952E+02  0.40478742829E+03  0.48456455407E+03  0.17300000000E+03 0.  1.
       -6    1    1    2    0  501 -0.56652734741E+02  0.97350469792E+01  0.49298121584E+03  0.52560801237E+03  0.17300000000E+03 0.  1.
</event>
<event>
 6   0  0.4500850E-05  0.2067506E+03  0.7546771E-02  0.1145187E+00
       21   -1    0    0  501  503  0.00000000000E+00  0.00000000000E+00  0.14789597399E+03  0.14789597399E+03  0.00000000000E+00 0. -1.
       21   -1    0    0  502  504  0.00000000000E+00  0.00000000000E+00 -0.21316295015E+04  0.21316295015E+04  0.00000000000E+00 0.  1.
        6    1    1    2  501    0 -0.35250903055E+02  0.33134929107E+02 -0.68378346018E+03  0.70698611734E+03  0.17300000000E+03 0.  1.
       -6    1    1    2    0  503  0.12031911324E+02  0.27740850784E+02 -0.14188208105E+03  0.22577388382E+03  0.17300000000E+03 0. -1.
        6    1    1    2  502    0  0.15150546736E+03  0.25385416377E+02 -0.81210788262E+02  0.24519893583E+03  0.17300000000E+03 0. -1.
       -6    1    1    2    0  504 -0.12828647563E+03 -0.86261196267E+02 -0.10768571981E+04  0.11015665385E+04  0.17300000000E+03 0.  1.
</event>
<event>
 6   0  0.4500850E-05  0.3089827E+03  0.7546771E-02  0.1091951E+00
       21   -1    0    0  501  503  0.00000000000E+00  0.00000000000E+00  0.11786857626E+04  0.11786857626E+04  0.00000000000E+00 0. -1.
       21   -1    0    0  502  504  0.00000000000E+00  0.00000000000E+00 -0.45815924655E+03  0.45815924655E+03  0.00000000000E+00 0.  1.
        6    1    1    2  501    0  0.24238899628E+03  0.97418113006E+02  0.40682908880E+03  0.51349938827E+03  0.17300000000E+03 0. -1.
       -6    1    1    2    0  503  0.14713880855E+03  0.35381052316E+02 -0.47528161405E+02  0.23471168264E+03  0.17300000000E+03 0. -1.
        6    1    1    2  502    0 -0.12726708502E+03 -0.14482215794E+03 -0.14189333563E+03  0.29535247935E+03  0.17300000000E+03 0.  1.
       -6    1    1    2    0  504 -0.26226071980E+03  0.12022992616E+02  0.50311892430E+03  0.59328145892E+03  0.17300000000E+03 0.  1.
</event>
<event>
 6   0  0.4500850E-05  0.3927883E+03  0.7546771E-02  0.1058613E+00
       21   -1    0    0  501  503  0.00000000000E+00  0.00000000000E+00  0.10647312326E+04  0.10647312326E+04  0.00000000000E+00 0.  1.
       21   -1    0    0  502  504  0.00000000000E+00  0.00000000000E+00 -0.91119733570E+03  0.91119733570E+03  0.00000000000E+00 0.  1.
        6    1    1    2  501    0 -0.18786441189E+03  0.10710280380E+03  0.71695095093E+01  0.27702788615E+03  0.17300000000E+03 0.  1.
       -6    1    1    2    0  503  0.22598617095E+03 -0.35030531476E+01 -0.37046641796E+03  0.46717918156E+03  0.17300000000E+03 0. -1.
        6    1    1    2  502    0 -0.46002507850E+02 -0.36543075144E+03  0.74141041171E+03  0.84573888608E+03  0.17300000000E+03 0.  1.
       -6    1    1    2    0  504  0.78807487912E+01  0.26183100079E+03 -0.22457960631E+03  0.38598261457E+03  0.17300000000E+03 0.  1.
</event>
<event>
 6   0  0.4500850E-05  0.2311937E+03  0.7546771E-02  0.1131260E+00
       21   -1    0    0  501  503  0.00000000000E+00  0.00000000000E+00  0.21861560621E+04  0.21861560621E+04  0.00000000000E+00 0.  1.
       21   -1    0    0  502  504  0.00000000000E+00  0.00000000000E+00 -0.15317867403E+03  0.15317867403E+03  0.00000000000E+00 0. -1.
        6    1    1    2  501    0 -0.83059529152E+02 -0.63448135181E+02  0.16024379549E+03  0.25793725057E+03  0.17300000000E+03 0. -1.
       -6    1    1    2    0  503  0.12803220408E+03 -0.54689351578E+02  0.11999522594E+04  0.12203268395E+04  0.17300000000E+03 0.  1.
        6    1    1    2  502    0 -0.19771659565E+03  0.13955872080E+03  0.30276146466E+03  0.42445493663E+03  0.17300000000E+03 0. -1.
       -6    1    1    2    0  504  0.15274392072E+03 -0.21421234038E+02  0.37001986851E+03  0.43661570938E+03  0.17300000000E+03 0.  1.
</event>
<event>
 6   0  0.4500850E-05  0.2702312E+03  0.7546771E-02  0.1108221E+00
       21   -1    0    0  501  503  0.00000000000E+00  0.00000000000E+00  0.10638219134E+04  0.10638219134E+04  0.00000000000E+00 0. -1.
       21   -1    0    0  502  504  0.00000000000E+00  0.00000000000E+00 -0.29537602759E+03  0.29537602759E+03  0.00000000000E+00 0.  1.
        6    1    1    2  501    0 -0.68626645573E+02  0.41795000422E+02  0.24216543977E+03  0.30826861462E+03  0.17300000000E+03 0. -1.
       -6    1    1    2    0  504 -0.28975046501E+03 -0.52995299784E+02  0.23497901044E+03  0.41461785914E+03  0.17300000000E+03 0. -1.
        6    1    1    2  502    0  0.23040666738E+03  0.11487401945E+03  0.23954131294E+03  0.39190855225E+03  0.17300000000E+03 0.  1.
       -6    1    1    2    0  503  0.12797044320E+03 -0.10367372009E+03  0.51760122723E+02  0.24440291503E+03  0.17300000000E+03 0. -1.
</event>
<event>
 6   0  0.4500850E-05  0.2546990E+03  0.7546771E-02  0.1124366E+00
       21   -1    0    0  502  503  0.00000000000E+00  0.00000000000E+00  0.72922134761E+03  0.72922134761E+03  0.00000000000E+00 0.  1.
       21   -1    0    0  501  504  0.00000000000E+00  0.00000000000E+00 -0.58347607169E+03  0.58347607169E+03  0.00000000000E+00 0.  1.
        6    1    1    2  501    0  0.58954676747E+01  0.11366494691E+03  0.88465206844E+02  0.22518785384E+03  0.17300000000E+03 0.  1.
       -6    1    1    2    0  503  0.15584063755E+03 -0.10109482972E+03  0.23714885427E+03  0.34738314293E+03  0.17300000000E+03 0.  1.
        6    1    1    2  502    0 -0.20415672713E+03  0.68284014320E+01  0.19059553035E+03  0.32860653141E+03  0.17300000000E+03 0.  1.
       -6    1    1    2    0  504  0.42420621908E+02 -0.19398518623E+02 -0.37046431554E+03  0.41151989111E+03  0.17300000000E+03 0.  1.
</event>
<event>
 6   0  0.4500850E-05  0.2650370E+03  0.7546771E-02  0.1117566E+00
       21   -1    0    0  504  503  0.00000000000E+00  0.00000000000E+00  0.28551111865E+03  0.28551111865E+03  0.00000000000E+00 0.  1.
       21   -1    0    0  501  504  0.00000000000E+00  0.00000000000E+00 -0.13087786263E+04  0.13087786263E+04  0.00000000000E+00 0.  1.
        6    1    1    2  501    0  0.34368851228E+02 -0.66322347700E+02 -0.13648196296E+03  0.23267186756E+03  0.17300000000E+03 0.  1.
       -6    1    1    2    0  502 -0.65087603032E+01  0.22016048478E+03 -0.33492047406E+03  0.43659331988E+03  0.17300000000E+03 0.  1.
        6    1    1    2  502    0 -0.18352259067E+03 -0.13472297097E+03 -0.61917551192E+03  0.68201036265E+03  0.17300000000E+03 0. -1.
       -6    1    1    2    0  503  0.15566249975E+03 -0.19115166119E+02  0.67310441281E+02  0.24301419487E+03  0.17300000000E+03 0. -1.
</event>
<event>
 6   0  0.4500850E-05  0.3583926E+03  0.7546771E-02  0.1070689E+00
       21   -1    0    0  502  503  0.00000000000E+00  0.00000000000E+00  0.41410501351E+03  0.41410501351E+03  0.00000000000E+00 0.  1.
       21   -1    0    0  501  504  0.00000000000E+00  0.00000000000E+00 -0.19433974945E+04  0.19433974945E+04  0.00000000000E+00 0.  1.
        6    1    1    2  501    0 -0.29917529056E+03 -0.12809268461E+03 -0.11536717237E+04  0.12111156165E+04  0.17300000000E+03 0.  1.
       -6    1    1    2    0  504 -0.87248624619E+02 -0.17457120095E+03 -0.17683143373E+03  0.31509646563E+03  0.17300000000E+03 0. -1.
        6    1    1    2  502    0  0.83190314388E+02  0.31648265076E+03  0.86618386679E+02  0.38014949895E+03  0.17300000000E+03 0.  1.
       -6    1    1    2    0  503  0.30323360079E+03 -0.13818765210E+02 -0.28540771021E+03  0.45114092695E+03  0.17300000000E+03 0. -1.
</event>
<event>
 6   0  0.4500850E-05  0.4015134E+03  0.7546771E-02  0.1060042E+00
       21   -1    0    0  502  503  0.00000000000E+00  0.00000000000E+00  0.48601357409E+03  0.48601357409E+03  0.00000000000E+00 0. -1.
       21   -1    0    0  501  504  0.00000000000E+00  0.00000000000E+00 -0.14818402922E+04  0.14818402922E+04  0.00000000000E+00 0.  1.
        6    1    1    2  501    0 -0.11806020059E+03  0.15240058394E+03 -0.49996901343E+03  0.56308273223E+03  0.17300000000E+03 0.  1.
       -6    1    1    2    0  504 -0.27526029885E+03 -0.30306642795E+03 -0.72485877832E+02  0.45033398091E+03  0.17300000000E+03 0. -1.
        6    1    1    2  502    0 -0.22470781197E+02  0.32788056721E+03 -0.17942427498E+03  0.41247142060E+03  0.17300000000E+03 0.  1.
       -6    1    1    2    0  503  0.41579128064E+03 -0.17721472320E+03 -0.24394755183E+03  0.54196573251E+03  0.17300000000E+03 0.  1.
</event>
<event>
 6   0  0.4500850E-05  0.2684248E+03  0.7546771E-02  0.1102575E+00
       21   -1    0    0  501  503  0.00000000000E+00  0.00000000000E+00  0.61517900384E+03  0.61517900384E+03  0.00000000000E+00 0. -1.
       21   -1    0    0  502  504  0.00000000000E+00  0.00000000000E+00 -0.87511619069E+03  0.87511619069E+03  0.00000000000E+00 0.  1.
        6    1    1    2  501    0 -0.16289000373E+03  0.31208777656E+03 -0.27226523401E+02  0.39319488446E+03  0.17300000000E+03 0. -1.
       -6    1    1    2    0  503  0.15293654584E+02  0.30853720046E+02  0.22111121356E+03  0.28285158064E+03  0.17300000000E+03 0. -1.
        6    1    1    2  502    0  0.17015899929E+03 -0.34932203009E+03 -0.12728426588E+03  0.44397100140E+03  0.17300000000E+03 0.  1.
       -6    1    1    2    0  504 -0.22562650148E+02  0.63805334811E+01 -0.32653761113E+03  0.37027772802E+03  0.17300000000E+03 0.  1.
</event>
<event>
 6   0  0.4500850E-05  0.3169103E+03  0.7546771E-02  0.1098759E+00
       21   -1    0    0  501  503  0.00000000000E+00  0.00000000000E+00  0.19593057368E+04  0.19593057368E+04  0.00000000000E+00 0.  1.
       21   -1    0    0  502  504  0.00000000000E+00  0.00000000000E+00 -0.15038045723E+03  0.15038045723E+03  0.00000000000E+00 0. -1.
        6    1    1    2  501    0 -0.19235871369E+03 -0.10763526423E+03  0.56628721501E+03  0.63182072989E+03  0.17300000000E+03 0. -1.
       -6    1    1    2    0  503  0.26266521005E+03  0.18547494621E+03  0.79063292827E+03  0.87087507457E+03  0.17300000000E+03 0.  1.
        6    1    1    2  502    0  0.13272393643E+02  0.40872011205E+02  0.22093274353E+03  0.28387841569E+03  0.17300000000E+03 0.  1.
       -6    1    1    2    0  504 -0.83578890009E+02 -0.11871169319E+03  0.23107239271E+03  0.32311197382E+03  0.17300000000E+03 0. -1.
</event>
<event>
 6   0  0.4500850E-05  0.2795671E+03  0.7546771E-02  0.1100035E+00
       21   -1    0    0  501  503  0.00000000000E+00  0.00000000000E+00  0.34255632912E+03  0.34255632912E+03  0.00000000000E+00 0.  1.
       21   -1    0    0  503  504  0.00000000000E+00  0.00000000000E+00 -0.10131034879E+04  0.10131034879E+04  0.00000000000E+00 0. -1.
        6    1    1    2  501    0  0.34645770966E+02  0.64459944799E+02  0.20143607722E+03  0.27542858808E+03  0.17300000000E+03 0. -1.
       -6    1    1    2    0  504  0.66812386872E+02  0.79226154916E+02 -0.49021300107E+03  0.53007401849E+03  0.17300000000E+03 0. -1.
        6    1    1    2  502    0 -0.64821503631E+02 -0.10158196432E+03 -0.16823866483E+03  0.26972944065E+03  0.17300000000E+03 0.  1.
       -6    1    1    2    0  502 -0.36636654206E+02 -0.42104135395E+02 -0.21353157008E+03  0.28042776979E+03  0.17300000000E+03 0. -1.
</event>
<event>
 6   0  0.4500850E-05  0.2822225E+03  0.7546771E-02  0.1108327E+00
       21   -1    0    0  501  503  0.00000000000E+00  0.00000000000E+00  0.31581143847E+04  0.31581143847E+04  0.00000000000E+00 0.  1.
       21   -1    0    0  503  504  0.00000000000E+00  0.00000000000E+00 -0.29155987330E+03  0.29155987330E+03  0.00000000000E+00 0.  1.
        6    1    1    2  501    0  0.22391749478E+00 -0.58279421482E+02  0.95620205506E+03  0.97347209062E+03  0.17300000000E+03 0.  1.
       -6    1    1    2    0  502 -0.14811171409E+03 -0.11161614812E+03  0.10536818360E+04  0.10837756483E+04  0.17300000000E+03 0.  1.
        6    1    1    2  502    0  0.12243463754E+03  0.36197400737E+03  0.10080115586E+04  0.10918020538E+04  0.17300000000E+03 0.  1.
       -6    1    1    2    0  504  0.25453159053E+02 -0.19207843777E+03 -0.15134093819E+03  0.30062446530E+03  0.17300000000E+03 0.  1.
</event>
<event>
 6   0  0.4500850E-05  0.2176738E+03  0.7546771E-02  0.1144559E+00
       21   -1    0    0  504  503  0.00000000000E+00  0.00000000000E+00  0.20738175434E+04  0.20738175434E+04  0.00000000000E+00 0.  1.
       21   -1    0    0  501  504  0.00000000000E+00  0.00000000000E+00 -0.10057659050E+03  0.10057659050E+03  0.00000000000E+00 0. -1.
        6    1    1    2  501    0 -0.29267038335E+02 -0.38075389534E+01  0.12609180189E+03  0.21609997545E+03  0.17300000000E+03 0. -1.
       -6    1    1    2    0  503  0.96722136228E+01  0.53864610885E+02  0.39862873579E+03  0.43798266749E+03  0.17300000000E+03 0. -1.
        6    1    1    2  502    0 -0.34690547783E+02 -0.14262249967E+03  0.10327365463E+04  0.10573638852E+04  0.17300000000E+03 0.  1.
       -6    1    1    2    0  502  0.54285372495E+02  0.92565427740E+02  0.41578386884E+03  0.46294760574E+03  0.17300000000E+03 0. -1.
</event>
<event>
 6   0  0.4500850E-05  0.2629504E+03  0.7546771E-02  0.1120216E+00
       21   -1    0    0  502  503  0.00000000000E+00  0.00000000000E+00  0.37308651138E+03  0.37308651138E+03  0.00000000000E+00 0. -1.
       21   -1    0    0  501  504  0.00000000000E+00  0.00000000000E+00 -0.16937011290E+04  0.16937011290E+04  0.00000000000E+00 0. -1.
        6    1    1    2  501    0  0.51492341019E+02  0.47428134407E+01 -0.75347071151E+03  0.77480389039E+03  0.17300000000E+03 0.  1.
       -6    1    1    2    0  504 -0.11410557641E+03  0.15028176113E+03 -0.22310264604E+03  0.33957102492E+03  0.17300000000E+03 0.  1.
        6    1    1    2  502    0 -0.18155868416E+03 -0.78216101650E+02  0.19769291650E+03  0.32877470034E+03  0.17300000000E+03 0. -1.
       -6    1    1    2    0  503  0.24417191955E+03 -0.76808472919E+02 -0.54173417656E+03  0.62363802471E+03  0.17300000000E+03 0. -1.
</event>
<event>
 6   0  0.4500850E-05  0.2860300E+03  0.7546771E-02  0.1096472E+00
       21   -1    0    0  502  503  0.00000000000E+00  0.00000000000E+00  0.12746909713E+04  0.12746909713E+04  0.00000000000E+00 0. -1.
       21   -1    0    0  501  504  0.00000000000E+00  0.00000000000E+00 -0.50534604118E+03  0.50534604118E+03  0.00000000000E+00 0. -1.
        6    1    1    2  501    0 -0.48099790457E+02  0.61636581782E+01  0.67487154298E+02  0.19192471576E+03  0.17300000000E+03 0.  1.
       -6    1    1    2    0  503 -0.28705235150E+03 -0.17134145453E+03 -0.23302926029E+03  0.44270597770E+03  0.17300000000E+03 0. -1.
        6    1    1    2  502    0 -0.66395904422E+02  0.69272737213E+02  0.17830306977E+03  0.26632332405E+03  0.17300000000E+03 0.  1.
       -6    1    1    2    0  504  0.40154804638E+03  0.95905059136E+02  0.75658396631E+03  0.87908299494E+03  0.17300000000E+03 0. -1.
</event>
<event>
 6   0  0.4500850E-05  0.2354016E+03  0.7546771E-02  0.1132721E+00
       21   -1    0    0  501  503  0.00000000000E+00  0.00000000000E+00  0.25954832596E+03  0.25954832596E+03  0.00000000000E+00 0. -1.
       21   -1    0    0  502  504  0.00000000000E+00  0.00000000000E+00 -0.20856048016E+04  0.20856048016E+04  0.00000000000E+00 0. -1.
        6    1    1    2  501    0 -0.11018892739E+03  0.20086005391E+03 -0.70970976646E+03  0.76557384594E+03  0.17300000000E+03 0. -1.
       -6    1    1    2    0  503 -0.43588360106E+02 -0.15256358305E+03  0.12749410857E+03  0.26713168986E+03  0.17300000000E+03 0. -1.
        6    1    1    2  502    0  0.11256980191E+03  0.17607641959E+01 -0.41788633554E+03  0.46608266437E+03  0.17300000000E+03 0. -1.
       -6    1    1    2    0  504  0.41207485581E+02 -0.50057235058E+02 -0.82595448220E+03  0.84636492739E+03  0.17300000000E+03 0.  1.
</event>
<event>
 6   0  0.4500850E-05  0.2825098E+03  0.7546771E-02  0.1108597E+00
       21   -1    0    0  502  503  0.00000000000E+00  0.00000000000E+00  0.64658321862E+03  0.64658321862E+03  0.00000000000E+00 0. -1.
       21   -1    0    0  501  504  0.00000000000E+00  0.00000000000E+00 -0.60739765528E+03  0.60739765528E+03  0.00000000000E+00 0. -1.
        6    1    1    2  501    0  0.94812093989E+02 -0.12563204610E+03 -0.30364251770E+01  0.23390374955E+03  0.17300000000E+03 0.  1.
       -6    1    1    2    0  503 -0.29580627759E+03  0.27170820454E+02  0.27104840393E+03  0.43776231521E+03  0.17300000000E+03 0.  1.
        6    1    1    2  502    0  0.11414377545E+03  0.12415645983E+03  0.45233043575E+02  0.24580206717E+03  0.17300000000E+03 0.  1.
       -6    1    1    2    0  504  0.86850408150E+02 -0.25695234187E+02 -0.27405945899E+03  0.33651274198E+03  0.17300000000E+03 0. -1.
</event>
<event>
 6   0  0.4500850E-05  0.5359435E+03  0.7546771E-02  0.1005162E+00
       -2   -1    0    0    0  501  0.00000000000E+00  0.00000000000E+00  0.53663476268E+03  0.53663476268E+03  0.00000000000E+00 0. -1.
        2   -1    0    0  503    0  0.00000000000E+00  0.00000000000E+00 -0.68383890264E+03  0.68383890264E+03  0.00000000000E+00 0.  1.
        6    1    1    2  502    0 -0.77376608016E+02 -0.51039472255E+02 -0.23668980029E+02  0.19769013079E+03  0.17300000000E+03 0.  1.
       -6    1    1    2    0  502  0.17728601768E+01  0.13560051617E+03  0.19268837368E+03  0.29231567247E+03  0.17300000000E+03 0. -1.
        6    1    1    2  503    0  0.17463157588E+03  0.13244319596E+03  0.24150386350E+02  0.28026706659E+03  0.17300000000E+03 0. -1.
       -6    1    1    2    0  501 -0.99027828043E+02 -0.21700423988E+03 -0.34037391996E+03  0.45020079547E+03  0.17300000000E+03 0.  1.
</event>
<event>
 6   0  0.4500850E-05  0.2846893E+03  0.7546771E-02  0.1106816E+00
       21   -1    0    0  502  503  0.00000000000E+00  0.00000000000E+00  0.54274516921E+03  0.54274516921E+03  0.00000000000E+00 0.  1.
       21   -1    0    0  501  504  0.00000000000E+00  0.00000000000E+00 -0.87056756274E+03  0.87056756274E+03  0.00000000000E+00 0. -1.
        6    1    1    2  501    0  0.17332114390E+03  0.23371460835E+03 -0.12061156496E+03  0.35935899416E+03  0.17300000000E+03 0. -1.
       -6    1    1    2    0  503  0.25637642953E+00  0.63399823526E+02  0.25897173001E+03  0.31782850768E+03  0.17300000000E+03 0.  1.
        6    1    1    2  502    0  0.15418763155E+02 -0.21788176204E+03 -0.34041044593E+03  0.43990734500E+03  0.17300000000E+03 0.  1.
       -6    1    1    2    0  504 -0.18899628349E+03 -0.79232669832E+02 -0.12577211265E+03  0.29621788511E+03  0.17300000000E+03 0. -1.
</event>
<event>
 6   0  0.4500850E-05  0.3037330E+03  0.7546771E-02  0.1087345E+00
       21   -1    0    0  504  503  0.00000000000E+00  0.00000000000E+00  0.48557877924E+03  0.48557877924E+03  0.00000000000E+00 0.  1.
       21   -1    0    0  501  504  0.00000000000E+00  0.00000000000E+00 -0.20211397401E+04  0.20211397401E+04  0.00000000000E+00 0.  1.
        6    1    1    2  501    0 -0.89539738567E+02 -0.72690160910E+02 -0.97060388846E+03  0.99262386259E+03  0.17300000000E+03 0. -1.
       -6    1    1    2    0  502 -0.75995186522E+02  0.34100741635E+03 -0.45654480059E+03  0.60035279739E+03  0.17300000000E+03 0.  1.
        6    1    1    2  502    0  0.65397026407E+02 -0.39063465302E+03 -0.36538617795E+03  0.56595782727E+03  0.17300000000E+03 0.  1.
       -6    1    1    2    0  503  0.10013789868E+03  0.12231739759E+03  0.25697390618E+03  0.34778403207E+03  0.17300000000E+03 0.  1.
</event>
<event>
 6   0  0.4500850E-05  0.2493326E+03  0.7546771E-02  0.1117426E+00
       21   -1    0    0  501  503  0.00000000000E+00  0.00000000000E+00  0.81089368925E+03  0.81089368925E+03  0.00000000000E+00 0.  1.
       21   -1    0    0  502  504  0.00000000000E+00  0.00000000000E+00 -0.22668055425E+04  0.22668055425E+04  0.00000000000E+00 0.  1.
        6    1    1    2  501    0  0.21888255207E+03  0.13150868217E+03 -0.10446868005E+03  0.32564829217E+03  0.17300000000E+03 0.  1.
       -6    1    1    2    0  503 -0.22085460860E+03 -0.18375926408E+03 -0.46306413841E+03  0.57175311241E+03  0.17300000000E+03 0.  1.
        6    1    1    2  502    0  0.24380411918E+02 -0.41072682772E+02  0.62693778866E+03  0.65212066415E+03  0.17300000000E+03 0.  1.
       -6    1    1    2    0  504 -0.22408355387E+02  0.93323264682E+02 -0.15153168235E+04  0.15281771630E+04  0.17300000000E+03 0.  1.
</event>
<event>
 6   0  0.4500850E-05  0.2589310E+03  0.7546771E-02  0.1109754E+00
       21   -1    0    0  501  503  0.00000000000E+00  0.00000000000E+00  0.52480976074E+03  0.52480976074E+03  0.00000000000E+00 0. -1.
       21   -1    0    0  502  504  0.00000000000E+00  0.00000000000E+00 -0.26072464756E+04  0.26072464756E+04  0.00000000000E+00 0. -1.
        6    1    1    2  501    0  0.38706734044E+02  0.92203657760E+02  0.37896535248E+03  0.42841972894E+03  0.17300000000E+03 0. -1.
       -6    1    1    2    0  504 -0.63410904777E+02  0.18823619085E+03 -0.44557644540E+03  0.51761102682E+03  0.17300000000E+03 0. -1.
        6    1    1    2  502    0  0.74337328104E+02  0.86236538644E+02 -0.15611144270E+04  0.15747920603E+04  0.17300000000E+03 0. -1.
       -6    1    1    2    0  503 -0.49633157372E+02 -0.36667638725E+03 -0.45471119492E+03  0.61123342028E+03  0.17300000000E+03 0. -1.
</event>
<event>
 6   0  0.4500850E-05  0.2244274E+03  0.7546771E-02  0.1132297E+00
       21   -1    0    0  501  503  0.00000000000E+00  0.00000000000E+00  0.84987504986E+03  0.84987504986E+03  0.00000000000E+00 0.  1.
       21   -1    0    0  502  504  0.00000000000E+00  0.00000000000E+00 -0.66225237671E+03  0.66225237671E+03  0.00000000000E+00 0.  1.
        6    1    1    2  501    0 -0.22466385449E+02  0.26510032014E+02 -0.79798179291E+02  0.19366019129E+03  0.17300000000E+03 0.  1.
       -6    1    1    2    0  504  0.14670507585E+03 -0.19608675211E+03 -0.33174387623E+03  0.44716372064E+03  0.17300000000E+03 0.  1.
        6    1    1    2  502    0 -0.70202168251E+01  0.55232672103E+02 -0.42678100029E+02  0.18668248909E+03  0.17300000000E+03 0. -1.
       -6    1    1    2    0  503 -0.11721847358E+03  0.11434404799E+03  0.64184282871E+03  0.68462102555E+03  0.17300000000E+03 0.  1.
</event>
<event>
 6   0  0.4500850E-05  0.4160142E+03  0.7546771E-02  0.1066161E+00
       21   -1    0    0  502  503  0.00000000000E+00  0.00000000000E+00  0.35776053263E+03  0.35776053263E+03  0.00000000000E+00 0.  1.
       21   -1    0    0  501  504  0.00000000000E+00  0.00000000000E+00 -0.16647046240E+04  0.16647046240E+04  0.00000000000E+00 0. -1.
        6    1    1    2  501    0 -0.11426257463E+02  0.74963804474E+02  0.24180944240E+03  0.30684024797E+03  0.17300000000E+03 0.  1.
       -6    1    1    2    0  504  0.95057507022E+02 -0.11941914904E+03 -0.72248683811E+03  0.75842804144E+03  0.17300000000E+03 0.  1.
        6    1    1    2  502    0  0.56343337700E+02 -0.82752372257E+02 -0.52429220516E+03  0.56110056425E+03  0.17300000000E+03 0. -1.
       -6    1    1    2    0  503 -0.13997458726E+03  0.12720771682E+03 -0.30197449049E+03  0.39609630294E+03  0.17300000000E+03 0.  1.
</event>
<event>
 6   0  0.4500850E-05  0.6355660E+03  0.7546771E-02  0.1005058E+00
       21   -1    0    0  501  503  0.00000000000E+00  0.00000000000E+00  0.66537669922E+03  0.66537669922E+03  0.00000000000E+00 0.  1.
       21   -1    0    0  502  504  0.00000000000E+00  0.00000000000E+00 -0.20392092787E+04  0.20392092787E+04  0.00000000000E+00 0. -1.
        6    1    1    2  501    0 -0.20111121826E+03 -0.17678359885E+03  0.13965339087E+03  0.34803768835E+03  0.17300000000E+03 0. -1.
       -6    1    1    2    0  504  0.43984233593E+03 -0.51778262924E+03 -0.95600258798E+03  0.11855083635E+04  0.17300000000E+03 0.  1.
        6    1    1    2  502    0 -0.40170319809E+03  0.29785609440E+03 -0.13844839393E+03  0.54697410369E+03  0.17300000000E+03 0.  1.
       -6    1    1    2    0  503  0.16297208041E+03  0.39671013369E+03 -0.41903498841E+03  0.62406582239E+03  0.17300000000E+03 0. -1.
</event>
<event>
 6   0  0.4500850E-05  0.3426283E+03  0.7546771E-02  0.1073282E+00
       21   -1    0    0  501  503  0.00000000000E+00  0.00000000000E+00  0.15133847210E+04  0.15133847210E+04  0.00000000000E+00 0. -1.
       21   -1    0    0  502  504  0.00000000000E+00  0.00000000000E+00 -0.71946722856E+03  0.71946722856E+03  0.00000000000E+00 0.  1.
        6    1    1    2  501    0  0.14964814493E+03 -0.33449528675E+02  0.23991727409E+03  0.33317073199E+03  0.17300000000E+03 0. -1.
       -6    1    1    2    0  504  0.82723445654E+02  0.20943644983E+03 -0.32274907655E+03  0.42988691698E+03  0.17300000000E+03 0.  1.
        6    1    1    2  502    0 -0.12700393400E+03  0.22046730335E+03 -0.15615003817E+03  0.34503284701E+03  0.17300000000E+03 0.  1.
       -6    1    1    2    0  503 -0.10536765659E+03 -0.39645422450E+03  0.10328993330E+04  0.11247614535E+04  0.17300000000E+03 0. -1.
</event>
<event>
 6   0  0.4500850E-05  0.4871669E+03  0.7546771E-02  0.1042053E+00
       21   -1    0    0  501  503  0.00000000000E+00  0.00000000000E+00  0.83160724735E+03  0.83160724735E+03  0.00000000000E+00 0. -1.
       21   -1    0    0  502  504  0.00000000000E+00  0.00000000000E+00 -0.58505893832E+03  0.58505893832E+03  0.00000000000E+00 0. -1.
        6    1    1    2  501    0 -0.11922100541E+03 -0.13188419868E+02  0.18156682916E+03  0.27799837410E+03  0.17300000000E+03 0.  1.
       -6    1    1    2    0  504 -0.51381522693E+02  0.40069575510E+03 -0.24710958587E+03  0.50417189178E+03  0.17300000000E+03 0. -1.
        6    1    1    2  502    0  0.55682850794E+02 -0.17918874695E+03  0.11190135232E+03  0.27867561708E+03  0.17300000000E+03 0. -1.
       -6    1    1    2    0  503  0.11491967731E+03 -0.20831858829E+03  0.20018971343E+03  0.35582030271E+03  0.17300000000E+03 0. -1.
</event>
<event>
 6   0  0.4500850E-05  0.3032946E+03  0.7546771E-02  0.1101921E+00
       21   -1    0    0  501  503  0.00000000000E+00  0.00000000000E+00  0.14947513506E+04  0.14947513506E+04  0.00000000000E+00 0.  1.
       21   -1    0    0  502  504  0.00000000000E+00  0.00000000000E+00 -0.42520231010E+03  0.42520231010E+03  0.00000000000E+00 0. -1.
        6    1    1    2  501    0  0.87081910484E+02 -0.23479857472E+03  0.43126692169E+03  0.52785773421E+03  0.17300000000E+03 0.  1.
       -6    1    1    2    0  504 -0.13557057991E+02  0.24997524171E+03 -0.26796936550E+03  0.40547255904E+03  0.17300000000E+03 0. -1.
        6    1    1    2  502    0 -0.57279669640E+02  0.54875665009E+02  0.33319694726E+03  0.38372060777E+03  0.17300000000E+03 0.  1.
       -6    1    1    2    0  503 -0.16245182854E+02 -0.70052332006E+02  0.57305453710E+03  0.60290275972E+03  0.17300000000E+03 0.  1.
</event>
<event>
 6   0  0.4500850E-05  0.2308059E+03  0.7546771E-02  0.1128055E+00
       21   -1    0    0  501  503  0.00000000000E+00  0.00000000000E+00  0.12339991626E+04  0.12339991626E+04  0.00000000000E+00 0.  1.
       21   -1    0    0  502  504  0.00000000000E+00  0.00000000000E+00 -0.18736231686E+03  0.18736231686E+03  0.00000000000E+00 0. -1.
        6    1    1    2  501    0  0.19221634903E+02  0.12493762384E+03  0.34271134895E+03  0.40417687934E+03  0.17300000000E+03 0. -1.
       -6    1    1    2    0  503  0.17994739764E+03  0.35765231040E+02  0.29780400545E+03  0.39022614383E+03  0.17300000000E+03 0.  1.
        6    1    1    2  502    0 -0.55858217638E+02 -0.16858788665E+03  0.16796551802E+03  0.29947192063E+03  0.17300000000E+03 0. -1.
       -6    1    1    2    0  504 -0.14331081490E+03  0.78850317781E+01  0.23815597329E+03  0.32748653561E+03  0.17300000000E+03 0.  1.
</event>
<event>
 6   0  0.4500850E-05  0.3331187E+03  0.7546771E-02  0.1083990E+00
       21   -1    0    0  502  503  0.00000000000E+00  0.00000000000E+00  0.31784681150E+03  0.31784681150E+03  0.00000000000E+00 0.  1.
       21   -1    0    0  503  504  0.00000000000E+00  0.00000000000E+00 -0.20216958537E+04  0.20216958537E+04  0.00000000000E+00 0.  1.
        6    1    1    2  501    0 -0.28992094859E+03  0.18230181785E+02 -0.71265148045E+03  0.78878870970E+03  0.17300000000E+03 0.  1.
       -6    1    1    2    0  501 -0.58733342282E+02  0.21805328220E+03 -0.76071936097E+02  0.29447033608E+03  0.17300000000E+03 0. -1.
        6    1    1    2  502    0  0.34959536307E+03 -0.33821343122E+03 -0.27405204971E+03  0.58449873301E+03  0.17300000000E+03 0.  1.
       -6    1    1    2    0  504 -0.94107219440E+00  0.10192996724E+03 -0.64107357597E+03  0.67178488644E+03  0.17300000000E+03 0. -1.
</event>
<event>
 6   0  0.4500850E-05  0.1900150E+03  0.7546771E-02  0.1161687E+00
       21   -1    0    0  501  503  0.00000000000E+00  0.00000000000E+00  0.24472203811E+04  0.24472203811E+04  0.00000000000E+00 0. -1.
       21   -1    0    0  503  504  0.00000000000E+00  0.00000000000E+00 -0.24858706056E+03  0.24858706056E+03  0.00000000000E+00 0.  1.
        6    1    1    2  501    0  0.76099893564E+01  0.32637794318E+02  0.12574769634E+04  0.12697639351E+04  0.17300000000E+03 0. -1.
       -6    1    1    2    0  504  0.32224505249E+02 -0.44113306245E+02  0.59351924281E+03  0.62062750029E+03  0.17300000000E+03 0. -1.
        6    1    1    2  502    0  0.72641410118E+02  0.22351042447E+02 -0.16616018837E+03  0.25162382987E+03  0.17300000000E+03 0.  1.
       -6    1    1    2    0  502 -0.11247590472E+03 -0.10875530519E+02  0.51379730270E+03  0.55379217634E+03  0.17300000000E+03 0. -1.
</event>
<event>
 6   0  0.4500850E-05  0.5925941E+03  0.7546771E-02  0.1003344E+00
       21   -1    0    0  502  503  0.00000000000E+00  0.00000000000E+00  0.10357702357E+04  0.10357702357E+04  0.00000000000E+00 0. -1.
       21   -1    0    0  501  504  0.00000000000E+00  0.00000000000E+00 -0.13552458839E+04  0.13552458839E+04  0.00000000000E+00 0. -1.
        6    1    1    2  501    0  0.22283383427E+02  0.28696154538E+03 -0.86121051682E+02  0.34668330396E+03  0.17300000000E+03 0. -1.
       -6    1    1    2    0  503 -0.10063593952E+03 -0.32874271825E+03 -0.58837616324E+03  0.70307529937E+03  0.17300000000E+03 0. -1.
        6    1    1    2  502    0 -0.57961314068E+02 -0.47129847461E+03  0.55271600851E+03  0.74893641397E+03  0.17300000000E+03 0. -1.
       -6    1    1    2    0  504  0.13631387016E+03  0.51307964748E+03 -0.19769444183E+03  0.59232110226E+03  0.17300000000E+03 0. -1.
</event>
<event>
 6   0  0.4500850E-05  0.4393418E+03  0.7546771E-02  0.1050905E+00
       21   -1    0    0  502  503  0.00000000000E+00  0.00000000000E+00  0.16258533359E+04  0.16258533359E+04  0.00000000000E+00 0. -1.
       21   -1    0    0  501  504  0.00000000000E+00  0.00000000000E+00 -0.40712462451E+03  0.40712462451E+03  0.00000000000E+00 0.  1.
        6    1    1    2  501    0  0.85971599498E+02  0.13807143834E+03  0.48802265985E+03  0.54272456599E+03  0.17300000000E+03 0. -1.
       -6    1    1    2    0  503  0.35672734108E+02  0.90858389311E+02  0.52074828047E+03  0.55734689600E+03  0.17300000000E+03 0.  1.
        6    1    1    2  502    0  0.42949015585E+02 -0.28838989777E+03  0.46698177713E+03  0.57707393915E+03  0.17300000000E+03 0. -1.
       -6    1    1    2    0  504 -0.16459334919E+03  0.59460070127E+02 -0.25702400606E+03  0.35583255926E+03  0.17300000000E+03 0.  1.
</event>
<event>
 6   0  0.4500850E-05  0.3598188E+03  0.7546771E-02  0.1078237E+00
       21   -1    0    0  504  503  0.00000000000E+00  0.00000000000E+00  0.66837255191E+03  0.66837255191E+03  0.00000000000E+00 0. -1.
       21   -1    0    0  501  504  0.00000000000E+00  0.00000000000E+00 -0.24804815675E+04  0.24804815675E+04  0.00000000000E+00 0.  1.
        6    1    1    2  501    0  0.28480318450E+02  0.30848675065E+02 -0.13668133387E+04  0.13783578897E+04  0.17300000000E+03 0.  1.
       -6    1    1    2    0  503 -0.10437711068E+03 -0.23702359222E+03  0.26719942754E+03  0.41036483595E+03  0.17300000000E+03 0. -1.
        6    1    1    2  502    0 -0.71103214835E+02 -0.26857008648E+03 -0.76423019716E+03  0.83136174603E+03  0.17300000000E+03 0.  1.
       -6    1    1    2    0  502  0.14700000706E+03  0.47474500363E+03  0.51735092704E+02  0.52876964774E+03  0.17300000000E+03 0.  1.
</event>
<event>
 6   0  0.4500850E-05  0.2760274E+03  0.7546771E-02  0.1114282E+00
       21   -1    0    0  504  503  0.00000000000E+00  0.00000000000E+00  0.13476800557E+04  0.13476800557E+04  0.00000000000E+00 0. -1.
       21   -1    0    0  501  504  0.00000000000E+00  0.00000000000E+00 -0.49968159707E+03  0.49968159707E+03  0.00000000000E+00 0.  1.
        6    1    1    2  501    0 -0.28271339647E+02  0.45896315543E+02 -0.17554989366E+03  0.25229448189E+03  0.17300000000E+03 0.  1.
       -6    1    1    2    0  503 -0.19423450277E+03 -0.19086006028E+03  0.46949884317E+03  0.56966022190E+03  0.17300000000E+03 0. -1.
        6    1    1    2  502    0  0.16798170569E+03  0.93463279988E+02  0.72571007579E+03  0.77041375394E+03  0.17300000000E+03 0. -1.
       -6    1    1    2    0  502  0.54524136722E+02  0.51500464746E+02 -0.17166056668E+03  0.25499319502E+03  0.17300000000E+03 0.  1.
</event>
<event>
 6   0  0.4500850E-05  0.2178300E+03  0.7546771E-02  0.1136575E+00
       21   -1    0    0  502  503  0.00000000000E+00  0.00000000000E+00  0.27948026225E+03  0.27948026225E+03  0.00000000000E+00 0. -1.
       21   -1    0    0  501  504  0.00000000000E+00  0.00000000000E+00 -0.95357372588E+03  0.95357372588E+03  0.00000000000E+00 0.  1.
        6    1    1    2  501    0  0.10911289194E+03  0.12586729655E+03 -0.33614099894E+03  0.41311980187E+03  0.17300000000E+03 0. -1.
       -6    1    1    2    0  504 -0.26132259232E+02  0.81572773571E+02  0.71929599559E+02  0.20600941642E+03  0.17300000000E+03 0. -1.
        6    1    1    2  502    0 -0.14099747377E+03 -0.12402566091E+03 -0.25052154164E+03  0.35770475955E+03  0.17300000000E+03 0.  1.
       -6    1    1    2    0  503  0.58016841061E+02 -0.83414409206E+02 -0.15936052259E+03  0.25622001029E+03  0.17300000000E+03 0.  1.
</event>
<event>
 6   0  0.4500850E-05  0.3269598E+03  0.7546771E-02  0.1075159E+00
       21   -1    0    0  501  503  0.00000000000E+00  0.00000000000E+00  0.15139958836E+04  0.15139958836E+04  0.00000000000E+00 0.  1.
       21   -1    0    0  502  504  0.00000000000E+00  0.00000000000E+00 -0.99481592225E+03  0.99481592225E+03  0.00000000000E+00 0. -1.
        6    1    1    2  501    0  0.26872247144E+03  0.80235883182E+02 -0.62786997924E+03  0.70908340443E+03  0.17300000000E+03 0. -1.
       -6    1    1    2    0  503 -0.78559600615E+02  0.12639231869E+03  0.97875995268E+03  0.10050107830E+04  0.17300000000E+03 0.  1.
        6    1    1    2  502    0 -0.36823463044E+03 -0.13144842836E+03  0.28126907799E+03  0.51177800520E+03  0.17300000000E+03 0. -1.
       -6    1    1    2    0  504  0.17807175961E+03 -0.75179773512E+02 -0.11297909007E+03  0.28293961319E+03  0.17300000000E+03 0.  1.
</event>
<event>
 6   0  0.4500850E-05  0.2542851E+03  0.7546771E-02  0.1114212E+00
       21   -1    0    0  501  503  0.00000000000E+00  0.00000000000E+00  0.50272948184E+03  0.50272948184E+03  0.00000000000E+00 0. -1.
       21   -1    0    0  502  504  0.00000000000E+00  0.00000000000E+00 -0.12297340814E+04  0.12297340814E+04  0.00000000000E+00 0. -1.
        6    1    1    2  501    0 -0.45045820943E+02  0.42239355873E+02 -0.24785912172E+03  0.30850678013E+03  0.17300000000E+03 0.  1.
       -6    1    1    2    0  503  0.18153197504E+02 -0.10259443961E+03  0.32008193670E+03  0.37846611978E+03  0.17300000000E+03 0. -1.
        6    1    1    2  502    0  0.26131934864E+03  0.14231018282E+03 -0.56985906173E+03  0.66573894309E+03  0.17300000000E+03 0. -1.
       -6    1    1    2    0  504 -0.23442672520E+03 -0.81955099078E+02 -0.22936835284E+03  0.37975172026E+03  0.17300000000E+03 0. -1.
</event>
<event>
 6   0  0.4500850E-05  0.6192000E+03  0.7546771E-02  0.1016357E+00
       21   -1    0    0  504  503  0.00000000000E+00  0.00000000000E+00  0.18677513715E+04  0.18677513715E+04  0.00000000000E+00 0. -1.
       21   -1    0    0  502  504  0.00000000000E+00  0.00000000000E+00 -0.21770212460E+04  0.21770212460E+04  0.00000000000E+00 0.  1.
        6    1    1    2  501    0 -0.75184961502E+03 -0.24132904446E+03  0.12711918297E+04  0.15064445623E+04  0.17300000000E+03 0. -1.
       -6    1    1    2    0  501  0.25773391090E+03  0.35537875559E+03 -0.10612524403E+04  0.11614243715E+04  0.17300000000E+03 0.  1.
        6    1    1    2  502    0  0.55952334527E+03 -0.11817360886E+03 -0.82553307253E+03  0.10190511418E+04  0.17300000000E+03 0.  1.
       -6    1    1    2    0  503 -0.65407641149E+02  0.41238977308E+01  0.30632380856E+03  0.35785254190E+03  0.17300000000E+03 0. -1.
</event>
<event>
 6   0  0.4500850E-05  0.5698848E+03  0.7546771E-02  0.1006532E+00
       -1   -1    0    0    0  501  0.00000000000E+00  0.00000000000E+00  0.96664335470E+03  0.96664335470E+03  0.00000000000E+00 0.  1.
        1   -1    0    0  503    0  0.00000000000E+00  0.00000000000E+00 -0.10585053185E+04  0.10585053185E+04  0.00000000000E+00 0. -1.
        6    1    1    2  502    0  0.98422174346E+02  0.69799456479E+01  0.51167848238E+03  0.54907150115E+03  0.17300000000E+03 0.  1.
       -6    1    1    2    0  501  0.43707055149E+02 -0.11478032271E+03  0.32410008849E+03  0.38736894108E+03  0.17300000000E+03 0.  1.
        6    1    1    2  503    0 -0.74558927506E+02  0.23709071014E+03 -0.72199832067E+03  0.78293142328E+03  0.17300000000E+03 0. -1.
       -6    1    1    2    0  502 -0.67570301989E+02 -0.12929033307E+03 -0.20564221400E+03  0.30577680768E+03  0.17300000000E+03 0. -1.
</event>
<event>
 6   0  0.4500850E-05  0.6111654E+03  0.7546771E-02  0.9888201E-01
       21   -1    0    0  502  503  0.00000000000E+00  0.00000000000E+00  0.24094947779E+03  0.24094947779E+03  0.00000000000E+00 0.  1.
       21   -1    0    0  503  504  0.00000000000E+00  0.00000000000E+00 -0.15755200257E+04  0.15755200257E+04  0.00000000000E+00 0.  1.
        6    1    1    2  501    0 -0.62934438743E+02  0.25038403314E+03 -0.17000764550E+03  0.35423792451E+03  0.17300000000E+03 0.  1.
       -6    1    1    2    0  501  0.30108189673E+02 -0.24012814425E+03 -0.47744201847E+03  0.56253702967E+03  0.17300000000E+03 0.  1.
        6    1    1    2  502    0  0.79621476451E+02 -0.22910275246E+03 -0.35111450910E+03  0.46047589426E+03  0.17300000000E+03 0.  1.
       -6    1    1    2    0  504 -0.46795227381E+02  0.21884686356E+03 -0.33600637482E+03  0.43921865502E+03  0.17300000000E+03 0.  1.
</event>
<event>
 6   0  0.4500850E-05  0.2179965E+03  0.7546771E-02  0.1135629E+00
       21   -1    0    0  504  503  0.00000000000E+00  0.00000000000E+00  0.47803385427E+03  0.47803385427E+03  0.00000000000E+00 0. -1.
       21   -1    0    0  502  504  0.00000000000E+00  0.00000000000E+00 -0.90825060968E+03  0.90825060968E+03  0.00000000000E+00 0. -1.
        6    1    1    2  501    0 -0.72046014063E+02 -0.19880733688E+02 -0.37605942981E+03  0.42063709592E+03  0.17300000000E+03 0. -1.
       -6    1    1    2    0  501  0.70516469379E+02 -0.13974445846E+03 -0.32859856494E+02  0.23560529767E+03  0.17300000000E+03 0.  1.
        6    1    1    2  502    0 -0.63008135642E+02  0.18918298183E+03 -0.29670907513E+03  0.39714669964E+03  0.17300000000E+03 0. -1.
       -6    1    1    2    0  503  0.64537680327E+02 -0.29557789688E+02  0.27541160602E+03  0.33289537071E+03  0.17300000000E+03 0. -1.
</event>
<event>
 6   0  0.4500850E-05  0.4248091E+03  0.7546771E-02  0.1046745E+00
       21   -1    0    0  502  503  0.00000000000E+00  0.00000000000E+00  0.19477293057E+04  0.19477293057E+04  0.00000000000E+00 0.  1.
       21   -1    0    0  501  504  0.00000000000E+00  0.00000000000E+00 -0.52654490380E+03  0.52654490380E+03  0.00000000000E+00 0. -1.
        6    1    1    2  501    0  0.40319179783E+03  0.40055423787E+03  0.47017989990E+03  0.75763148139E+03  0.17300000000E+03 0.  1.
       -6    1    1    2    0  503  0.24410382902E+03 -0.37094022187E+02 -0.10521894578E+03  0.31931594444E+03  0.17300000000E+03 0. -1.
        6    1    1    2  502    0 -0.12201121292E+03 -0.17734859653E+02  0.48828196606E+03  0.53249369921E+03  0.17300000000E+03 0.  1.
       -6    1    1    2    0  504 -0.52528441393E+03 -0.34572535603E+03  0.56794148174E+03  0.86483308447E+03  0.17300000000E+03 0.  1.
</event>
<event>
 6   0  0.4500850E-05  0.2642738E+03  0.7546771E-02  0.1113535E+00
       21   -1    0    0  502  503  0.00000000000E+00  0.00000000000E+00  0.11537623931E+04  0.11537623931E+04  0.00000000000E+00 0.  1.
       21   -1    0    0  501  504  0.00000000000E+00  0.00000000000E+00 -0.20750208184E+04  0.20750208184E+04  0.00000000000E+00 0.  1.
        6    1    1    2  501    0 -0.15762783765E+03 -0.72321757383E+02  0.10080427836E+04  0.10373794992E+04  0.17300000000E+03 0.  1.
       -6    1    1    2    0  503 -0.67470939937E+02  0.14585790356E+03 -0.59367785484E+02  0.24347564503E+03  0.17300000000E+03 0. -1.
        6    1    1    2  502    0  0.28755440209E+03 -0.36493497129E+02 -0.92793750184E+03  0.98742914521E+03  0.17300000000E+03 0.  1.
       -6    1    1    2    0  504 -0.62455624500E+02 -0.37042649049E+02 -0.94199592158E+03  0.96049892200E+03  0.17300000000E+03 0.  1.
</event>
<event>
 6   0  0.4500850E-05  0.4607598E+03  0.7546771E-02  0.1051287E+00
       21   -1    0    0  501  503  0.00000000000E+00  0.00000000000E+00  0.21856022942E+04  0.21856022942E+04  0.00000000000E+00 0.  1.
       21   -1    0    0  502  504  0.00000000000E+00  0.00000000000E+00 -0.34360353123E+03  0.34360353123E+03  0.00000000000E+00 0.  1.
        6    1    1    2  501    0  0.18245889195E+03 -0.54735368215E+02  0.62523797913E+01  0.25740104902E+03  0.17300000000E+03 0. -1.
       -6    1    1    2    0  504  0.11920284522E+03 -0.63399889039E+02 -0.76420845990E+02  0.23237471881E+03  0.17300000000E+03 0.  1.
        6    1    1    2  502    0 -0.18248284091E+03  0.13812873478E+03  0.30599316479E+03  0.41945244248E+03  0.17300000000E+03 0.  1.
       -6    1    1    2    0  503 -0.11917889626E+03 -0.19993477527E+02  0.16061740644E+04  0.16199776152E+04  0.17300000000E+03 0.  1.
</event>
<event>
 6   0  0.4500850E-05  0.2677760E+03  0.7546771E-02  0.1109061E+00
       21   -1    0    0  502  503  0.00000000000E+00  0.00000000000E+00  0.36294845252E+03  0.36294845252E+03  0.00000000000E+00 0.  1.
       21   -1    0    0  501  504  0.00000000000E+00  0.00000000000E+00 -0.10763107298E+04  0.10763107298E+04  0.00000000000E+00 0.  1.
        6    1    1    2  501    0 -0.81888499307E+02 -0.40232093351E+02 -0.28195978620E+03  0.34315400142E+03  0.17300000000E+03 0.  1.
       -6    1    1    2    0  504 -0.80243913225E+02  0.12732820564E+03 -0.50227031923E+02  0.23474094721E+03  0.17300000000E+03 0.  1.
        6    1    1    2  502    0 -0.16528604881E+02  0.15886359614E+03  0.10877694919E+03  0.25936896814E+03  0.17300000000E+03 0.  1.
       -6    1    1    2    0  503  0.17866101741E+03 -0.24595970842E+03 -0.48995240829E+03  0.60199526551E+03  0.17300000000E+03 0.  1.
</event>
<event>
 6   0  0.4500850E-05  0.2668390E+03  0.7546771E-02  0.1109711E+00
       21   -1    0    0  502  503  0.00000000000E+00  0.00000000000E+00  0.89516927873E+03  0.89516927873E+03  0.00000000000E+00 0.  1.
       21   -1    0    0  503  504  0.00000000000E+00  0.00000000000E+00 -0.36487710754E+03  0.36487710754E+03  0.00000000000E+00 0. -1.
        6    1    1    2  501    0  0.22650775559E+03 -0.84324407887E+02  0.11765580424E+03  0.31966898095E+03  0.17300000000E+03 0. -1.
       -6    1    1    2    0  504 -0.71080532756E+02 -0.11431464483E+03  0.14923663422E+03  0.26518079333E+03  0.17300000000E+03 0.  1.
        6    1    1    2  502    0  0.55912583991E+02 -0.39519593162E+02 -0.53723179400E+02  0.19365741736E+03  0.17300000000E+03 0. -1.
       -6    1    1    2    0  501 -0.21133980683E+03  0.23815864588E+03  0.31712291214E+03  0.48153919463E+03  0.17300000000E+03 0.  1.
</event>
<event>
 6   0  0.4500850E-05  0.5473342E+03  0.7546771E-02  0.1011558E+00
       -1   -1    0    0    0  501  0.00000000000E+00  0.00000000000E+00  0.14278101391E+03  0.14278101391E+03  0.00000000000E+00 0. -1.
        1   -1    0    0  503    0  0.00000000000E+00  0.00000000000E+00 -0.16585463286E+04  0.16585463286E+04  0.00000000000E+00 0.  1.
        6    1    1    2  502    0  0.58222046076E+02 -0.23379005098E+02 -0.23200765121E+03  0.29612992883E+03  0.17300000000E+03 0.  1.
       -6    1    1    2    0  502  0.14805779641E+02  0.13859104491E+03 -0.76616108517E+03  0.79772081411E+03  0.17300000000E+03 0.  1.
        6    1    1    2  503    0 -0.18907218285E+03 -0.33900313729E+02 -0.26805391522E+03  0.37239686232E+03  0.17300000000E+03 0. -1.
       -6    1    1    2    0  501  0.11604435713E+03 -0.81311726083E+02 -0.24954266311E+03  0.33507973728E+03  0.17300000000E+03 0.  1.
</event>
<event>
 6   0  0.4500850E-05  0.2404996E+03  0.7546771E-02  0.1131820E+00
       21   -1    0    0  501  503  0.00000000000E+00  0.00000000000E+00  0.49473709917E+03  0.49473709917E+03  0.00000000000E+00 0. -1.
       21   -1    0    0  502  504  0.00000000000E+00  0.00000000000E+00 -0.41474694366E+03  0.41474694366E+03  0.00000000000E+00 0. -1.
        6    1    1    2  501    0 -0.59256692140E+02  0.27432927236E+02 -0.61171331805E+02  0.19476871642E+03  0.17300000000E+03 0.  1.
       -6    1    1    2    0  504  0.33034769786E+02 -0.18643773599E+02 -0.67643942052E+02  0.18958794583E+03  0.17300000000E+03 0.  1.
        6    1    1    2  502    0  0.17179416850E+02 -0.17146812177E+03  0.10619674465E+03  0.26627654369E+03  0.17300000000E+03 0. -1.
       -6    1    1    2    0  503  0.90425055042E+01  0.16267896813E+03  0.10260868473E+03  0.25885083689E+03  0.17300000000E+03 0. -1.
</event>
<event>
 6   0  0.4500850E-05  0.2682419E+03  0.7546771E-02  0.1102949E+00
       21   -1    0    0  502  503  0.00000000000E+00  0.00000000000E+00  0.32349916664E+03  0.32349916664E+03  0.00000000000E+00 0.  1.
       21   -1    0    0  501  504  0.00000000000E+00  0.00000000000E+00 -0.10448924689E+04  0.10448924689E+04  0.00000000000E+00 0.  1.
        6    1    1    2  501    0 -0.16680745760E+03 -0.39935325380E+02 -0.25185015622E+03  0.35039557547E+03  0.17300000000E+03 0. -1.
       -6    1    1    2    0  503  0.13919284366E+03  0.41331232897E+02 -0.21797643127E+02  0.22690759305E+03  0.17300000000E+03 0. -1.
        6    1    1    2  502    0  0.13283768002E+03 -0.24386330790E+03 -0.29356526672E+03  0.43957334769E+03  0.17300000000E+03 0.  1.
       -6    1    1    2    0  504 -0.10522306608E+03  0.24246740038E+03 -0.15418023619E+03  0.35151511932E+03  0.17300000000E+03 0.  1.
</event>
<event>
 6   0  0.4500850E-05  0.3187413E+03  0.7546771E-02  0.1097546E+00
       21   -1    0    0  501  503  0.00000000000E+00  0.00000000000E+00  0.14423030602E+04  0.14423030602E+04  0.00000000000E+00 0.  1.
       21   -1    0    0  502  504  0.00000000000E+00  0.00000000000E+00 -0.21611300417E+03  0.21611300417E+03  0.00000000000E+00 0.  1.
        6    1    1    2  501    0 -0.42245525280E+02 -0.31364282394E+02  0.45301726749E+03  0.48777253639E+03  0.17300000000E+03 0. -1.
       -6    1    1    2    0  504  0.61918247460E+02  0.20678360784E+02  0.34162686505E+03  0.38845769254E+03  0.17300000000E+03 0.  1.
        6    1    1    2  502    0 -0.26191913467E+03 -0.89229190224E+02  0.29454287741E+03  0.43959980451E+03  0.17300000000E+03 0.  1.
       -6    1    1    2    0  503  0.24224641249E+03  0.99915111835E+02  0.13700304607E+03  0.34258603090E+03  0.17300000000E+03 0.  1.
</event>
<event>
 6   0  0.4500850E-05  0.2570809E+03  0.7546771E-02  0.1114327E+00
       21   -1    0    0  501  503  0.00000000000E+00  0.00000000000E+00  0.26036246964E+04  0.26036246964E+04  0.00000000000E+00 0. -1.
       21   -1    0    0  502  504  0.00000000000E+00  0.00000000000E+00 -0.11777029790E+03  0.11777029790E+03  0.00000000000E+00 0.  1.
        6    1    1    2  501    0 -0.22776553291E+03 -0.96484169136E+01  0.52910961667E+03  0.60154485816E+03  0.17300000000E+03 0.  1.
       -6    1    1    2    0  503 -0.13217368202E+02 -0.20518374489E+02  0.52026405350E+03  0.54881635168E+03  0.17300000000E+03 0. -1.
        6    1    1    2  502    0  0.32103875532E+03  0.87596441712E+02  0.12225931255E+04  0.12788283582E+04  0.17300000000E+03 0. -1.
       -6    1    1    2    0  504 -0.80055854210E+02 -0.57429650309E+02  0.21388760279E+03  0.29220542629E+03  0.17300000000E+03 0.  1.
</event>
<event>
 6   0  0.4500850E-05  0.4587817E+03  0.7546771E-02  0.1055818E+00
       21   -1    0    0  501  503  0.00000000000E+00  0.00000000000E+00  0.23442998842E+04  0.23442998842E+04  0.00000000000E+00 0. -1.
       21   -1    0    0  503  504  0.00000000000E+00  0.00000000000E+00 -0.20062669777E+03  0.20062669777E+03  0.00000000000E+00 0.  1.
        6    1    1    2  501    0 -0.41095273920E+02  0.37703258688E+02  0.55218532361E+03  0.58133294150E+03  0.17300000000E+03 0. -1.
       -6    1    1    2    0  504  0.17277994940E+03 -0.10904668423E+03  0.28847762560E+03  0.39356375688E+03  0.17300000000E+03 0.  1.
        6    1    1    2  502    0  0.73101976180E+02 -0.86797634798E+01 -0.44977176144E+02  0.19331627865E+03  0.17300000000E+03 0. -1.
       -6    1    1    2    0  502 -0.20478665166E+03  0.80023189020E+02  0.13479874134E+04  0.13767136050E+04  0.17300000000E+03 0. -1.
</event>
<event>
 6   0  0.4500850E-05  0.2605194E+03  0.7546771E-02  0.1116606E+00
       21   -1    0    0  502  503  0.00000000000E+00  0.00000000000E+00  0.31788975945E+04  0.31788975945E+04  0.00000000000E+00 0. -1.
       21   -1    0    0  501  504  0.00000000000E+00  0.00000000000E+00 -0.10832758063E+04  0.10832758063E+04  0.00000000000E+00 0. -1.
        6    1    1    2  501    0  0.23314949903E+03  0.17082600477E+03  0.12498616666E+04  0.12944587280E+04  0.17300000000E+03 0. -1.
       -6    1    1    2    0  503 -0.36800563502E+02 -0.33290115040E+02  0.18486251559E+04  0.18573654676E+04  0.17300000000E+03 0. -1.
        6    1    1    2  502    0 -0.46693518277E+02 -0.16357575789E+03 -0.58376283384E+03  0.63217510184E+03  0.17300000000E+03 0. -1.
       -6    1    1    2    0  504 -0.14965541725E+03  0.26039868152E+02 -0.41910220052E+03  0.47817410336E+03  0.17300000000E+03 0.  1.
</event>
<event>
 6   0  0.4500850E-05  0.2321077E+03  0.7546771E-02  0.1133271E+00
       21   -1    0    0  504  503  0.00000000000E+00  0.00000000000E+00  0.19865568217E+03  0.19865568217E+03  0.00000000000E+00 0.  1.
       21   -1    0    0  501  504  0.00000000000E+00  0.00000000000E+00 -0.19236035006E+04  0.19236035006E+04  0.00000000000E+00 0. -1.
        6    1    1    2  501    0  0.12524971216E+03  0.72545391796E+02 -0.11999569199E+04  0.12209733552E+04  0.17300000000E+03 0. -1.
       -6    1    1    2    0  502 -0.24602864793E+03 -0.20484871228E+02 -0.22056844517E+03  0.37353602846E+03  0.17300000000E+03 0.  1.
        6    1    1    2  502    0  0.12092063274E+03  0.26864743606E+02 -0.25337354240E+03  0.33086351546E+03  0.17300000000E+03 0.  1.
       -6    1    1    2    0  503 -0.14169696735E+00 -0.78925264174E+02 -0.51048910918E+02  0.19688628370E+03  0.17300000000E+03 0. -1.
</event>
<event>
 6   0  0.4500850E-05  0.2103755E+03  0.7546771E-02  0.1148154E+00
       21   -1    0    0  502  503  0.00000000000E+00  0.00000000000E+00  0.45810353758E+03  0.45810353758E+03  0.00000000000E+00 0. -1.
       21   -1    0    0  501  504  0.00000000000E+00  0.00000000000E+00 -0.63167311526E+03  0.63167311526E+03  0.00000000000E+00 0. -1.
        6    1    1    2  501    0 -0.15400430416E+03 -0.45459930430E+02 -0.13387281233E+03  0.27135744113E+03  0.17300000000E+03 0. -1.
       -6    1    1    2    0  504  0.81767939439E+02  0.60721443694E+02 -0.25551941128E+03  0.32494962561E+03  0.17300000000E+03 0. -1.
        6    1    1    2  502    0  0.11588551627E+03 -0.13088980354E+02 -0.60775838658E+01  0.20872640301E+03  0.17300000000E+03 0. -1.
       -6    1    1    2    0  503 -0.43649151541E+02 -0.21725329101E+01  0.22190022980E+03  0.28474318309E+03  0.17300000000E+03 0. -1.
</event>
<event>
 6   0  0.4500850E-05  0.6562972E+03  0.7546771E-02  0.9795034E-01
       -1   -1    0    0    0  501  0.00000000000E+00  0.00000000000E+00  0.10841439205E+04  0.10841439205E+04  0.00000000000E+00 0.  1.
        1   -1    0    0  503    0  0.00000000000E+00  0.00000000000E+00 -0.52590965976E+03  0.52590965976E+03  0.00000000000E+00 0. -1.
        6    1    1    2  502    0  0.15123123354E+03 -0.36197837794E+03 -0.17311359642E+03  0.46238138950E+03  0.17300000000E+03 0. -1.
       -6    1    1    2    0  502 -0.71170688129E+02 -0.53844955991E+02  0.95625976281E+02  0.21688216495E+03  0.17300000000E+03 0. -1.
        6    1    1    2  503    0 -0.12098944191E+03  0.43982287274E+03  0.53894562691E+03  0.72696216766E+03  0.17300000000E+03 0.  1.
       -6    1    1    2    0  501  0.40928896503E+02 -0.23999538803E+02  0.96776253979E+02  0.20382785817E+03  0.17300000000E+03 0.  1.
</event>
<event>
 6   0  0.4500850E-05  0.2510531E+03  0.7546771E-02  0.1118853E+00
       21   -1    0    0  501  503  0.00000000000E+00  0.00000000000E+00  0.24357305908E+03  0.24357305908E+03  0.00000000000E+00 0.  1.
       21   -1    0    0  502  504  0.00000000000E+00  0.00000000000E+00 -0.13221965911E+04  0.13221965911E+04  0.00000000000E+00 0.  1.
        6    1    1    2  501    0  0.78023657316E+02 -0.16991197317E+03 -0.43223306241E+03  0.50170926837E+03  0.17300000000E+03 0.  1.
       -6    1    1    2    0  503 -0.16608799665E+03 -0.12700040488E+03 -0.19581360012E+03  0.33464352894E+03  0.17300000000E+03 0. -1.
        6    1    1    2  502    0  0.21829109670E+02  0.18843636273E+03 -0.31636117601E+02  0.25867859742E+03  0.17300000000E+03 0.  1.
       -6    1    1    2    0  504  0.66235229663E+02  0.10847601532E+03 -0.41894075188E+03  0.47073825543E+03  0.17300000000E+03 0.  1.
</event>
<event>
 6   0  0.4500850E-05  0.5015108E+03  0.7546771E-02  0.1021009E+00
       21   -1    0    0  502  503  0.00000000000E+00  0.00000000000E+00  0.95266895024E+03  0.95266895024E+03  0.00000000000E+00 0.  1.
       21   -1    0    0  501  504  0.00000000000E+00  0.00000000000E+00 -0.58824930042E+03  0.58824930042E+03  0.00000000000E+00 0.  1.
        6    1    1    2  501    0  0.21219564360E+02 -0.30045819581E+03  0.55173622623E+02  0.35170801239E+03  0.17300000000E+03 0.  1.
       -6    1    1    2    0  504  0.22886522385E+03  0.24464098062E+03 -0.30753751523E+02  0.37828995932E+03  0.17300000000E+03 0.  1.
        6    1    1    2  502    0  0.34447800639E+02  0.27280832433E+03  0.75591982616E+02  0.33354786857E+03  0.17300000000E+03 0.  1.
       -6    1    1    2    0  503 -0.28453258885E+03 -0.21699110913E+03  0.26440779611E+03  0.47737241039E+03  0.17300000000E+03 0. -1.
</event>
<event>
 6   0  0.4500850E-05  0.4529273E+03  0.7546771E-02  0.1053448E+00
       21   -1    0    0  501  503  0.00000000000E+00  0.00000000000E+00  0.69385227640E+03  0.69385227640E+03  0.00000000000E+00 0. -1.
       21   -1    0    0  502  504  0.00000000000E+00  0.00000000000E+00 -0.44075016487E+03  0.44075016487E+03  0.00000000000E+00 0. -1.
        6    1    1    2  501    0  0.92956730731E+02  0.20854165213E+03 -0.99041552019E+02  0.30309866956E+03  0.17300000000E+03 0. -1.
       -6    1    1    2    0  503 -0.10490955501E+03 -0.52173763532E+02  0.61739649180E+02  0.21787358861E+03  0.17300000000E+03 0.  1.
        6    1    1    2  502    0  0.84272203829E+01 -0.20762942256E+03  0.33225382626E+03  0.42837203482E+03  0.17300000000E+03 0. -1.
       -6    1    1    2    0  504  0.35256038956E+01  0.51261533964E+02 -0.41849811897E+02  0.18525814828E+03  0.17300000000E+03 0. -1.
</event>
<event>
 6   0  0.4500850E-05  0.4197019E+03  0.7546771E-02  0.1058678E+00
       21   -1    0    0  502  503  0.00000000000E+00  0.00000000000E+00  0.25050818990E+03  0.25050818990E+03  0.00000000000E+00 0.  1.
       21   -1    0    0  501  504  0.00000000000E+00  0.00000000000E+00 -0.11551181772E+04  0.11551181772E+04  0.00000000000E+00 0.  1.
        6    1    1    2  501    0 -0.61983657879E+02 -0.14635939916E+03 -0.43924822471E+02  0.23900091547E+03  0.17300000000E+03 0.  1.
       -6    1    1    2    0  503 -0.49386058296E+02 -0.77996002945E+02 -0.57286677736E+02  0.20428686369E+03  0.17300000000E+03 0.  1.
        6    1    1    2  502    0 -0.34024269331E+02  0.20779352731E+03 -0.59520823607E+03  0.65462786771E+03  0.17300000000E+03 0.  1.
       -6    1    1    2    0  504  0.14539398551E+03  0.16561874790E+02 -0.20819025099E+03  0.30771072020E+03  0.17300000000E+03 0. -1.
</event>
<event>
 6   0  0.4500850E-05  0.2078010E+03  0.7546771E-02  0.1143528E+00
       21   -1    0    0  504  503  0.00000000000E+00  0.00000000000E+00  0.60313403162E+03  0.60313403162E+03  0.00000000000E+00 0.  1.
       21   -1    0    0  501  504  0.00000000000E+00  0.00000000000E+00 -0.61326473617E+03  0.61326473617E+03  0.00000000000E+00 0. -1.
        6    1    1    2  501    0 -0.78839765914E+02  0.54370178613E+02 -0.33907369259E+03  0.39251980080E+03  0.17300000000E+03 0. -1.
       -6    1    1    2    0  502  0.48358617395E+02  0.80824014453E+02  0.22011302002E+02  0.19820336678E+03  0.17300000000E+03 0.  1.
        6    1    1    2  502    0  0.15822139998E+03 -0.10031314908E+03  0.71625790607E+01  0.25510202239E+03  0.17300000000E+03 0. -1.
       -6    1    1    2    0  503 -0.12774025146E+03 -0.34881043990E+02  0.29976910698E+03  0.37057357781E+03  0.17300000000E+03 0.  1.
</event>
<event>
 6   0  0.4500850E-05  0.3178634E+03  0.7546771E-02  0.1076736E+00
       21   -1    0    0  504  503  0.00000000000E+00  0.00000000000E+00  0.13672514096E+04  0.13672514096E+04  0.00000000000E+00 0. -1.
       21   -1    0    0  502  504  0.00000000000E+00  0.00000000000E+00 -0.62932366399E+03  0.62932366399E+03  0.00000000000E+00 0. -1.
        6    1    1    2  501    0  0.27509304446E+03 -0.34808328005E+03  0.15254855477E+03  0.50003821306E+03  0.17300000000E+03 0. -1.
       -6    1    1    2    0  501 -0.26348022058E+03  0.26866558956E+03  0.16012959965E+03  0.44404224386E+03  0.17300000000E+03 0.  1.
        6    1    1    2  502    0 -0.16091139251E+03  0.38411690230E+02 -0.24539239501E+03  0.34280367809E+03  0.17300000000E+03 0. -1.
       -6    1    1    2    0  503  0.14929856862E+03  0.41006000253E+02  0.67064198624E+03  0.70969093862E+03  0.17300000000E+03 0. -1.
</event>
<event>
 6   0  0.4500850E-05  0.2469008E+03  0.7546771E-02  0.1116628E+00
       21   -1    0    0  501  503  0.00000000000E+00  0.00000000000E+00  0.50472332345E+03  0.50472332345E+03  0.00000000000E+00 0.  1.
       21   -1    0    0  503  504  0.00000000000E+00  0.00000000000E+00 -0.64300692843E+03  0.64300692843E+03  0.00000000000E+00 0. -1.
        6    1    1    2  501    0 -0.40683097834E+02 -0.41412607256E+02  0.11700868585E+03  0.21677211780E+03  0.17300000000E+03 0.  1.
       -6    1    1    2    0  504  0.28414277664E+02 -0.17189743146E+02 -0.15068640274E+03  0.23181512120E+03  0.17300000000E+03 0. -1.
        6    1    1    2  502    0 -0.75467646858E+02 -0.24994550305E+03 -0.11734200585E+03  0.33446414838E+03  0.17300000000E+03 0.  1.
       -6    1    1    2    0  502  0.87736467029E+02  0.30854785345E+03  0.12736117753E+02  0.36467886450E+03  0.17300000000E+03 0.  1.
</event>
<event>
 6   0  0.4500850E-05  0.5172111E+03  0.7546771E-02  0.1038998E+00
       21   -1    0    0  504  503  0.00000000000E+00  0.00000000000E+00  0.16931559912E+04  0.16931559912E+04  0.00000000000E+00 0.  1.
       21   -1    0    0  501  504  0.00000000000E+00  0.00000000000E+00 -0.20263764948E+03  0.20263764948E+03  0.00000000000E+00 0.  1.
        6    1    1    2  501    0 -0.72076505481E+02  0.10030339948E+03  0.40212078783E+03  0.45484714201E+03  0.17300000000E+03 0. -1.
       -6    1    1    2    0  503  0.25358377147E+03  0.21929614916E+03  0.65560142136E+03  0.75639788067E+03  0.17300000000E+03 0.  1.
        6    1    1    2  502    0 -0.55000761242E+02 -0.59006908013E+02  0.12770356839E+03  0.22966083756E+03  0.17300000000E+03 0.  1.
       -6    1    1    2    0  502 -0.12650650475E+03 -0.26059264063E+03  0.30509256413E+03  0.45488778042E+03  0.17300000000E+03 0.  1.
</event>
<event>
 6   0  0.4500850E-05  0.3613202E+03  0.7546771E-02  0.1079726E+00
       21   -1    0    0  502  503  0.00000000000E+00  0.00000000000E+00  0.82665519869E+03  0.82665519869E+03  0.00000000000E+00 0. -1.
       21   -1    0    0  501  504  0.00000000000E+00  0.00000000000E+00 -0.53576709905E+03  0.53576709905E+03  0.00000000000E+00 0.  1.
        6    1    1    2  501    0 -0.40865523480E+02 -0.98683324739E+02  0.89577249174E+02  0.22217442058E+03  0.17300000000E+03 0. -1.
       -6    1    1    2    0  503 -0.28341212234E+03  0.14959226733E+03  0.35453000339E+03  0.50825269388E+03  0.17300000000E+03 0.  1.
        6    1    1    2  502    0  0.27815087856E+03 -0.13793855356E+03  0.36129126828E+02  0.35725238922E+03  0.17300000000E+03 0. -1.
       -6    1    1    2    0  504  0.46126767265E+02  0.87029610964E+02 -0.18934827975E+03  0.27474279406E+03  0.17300000000E+03 0.  1.
</event>
<event>
 6   0  0.4500850E-05  0.2376226E+03  0.7546771E-02  0.1127615E+00
       21   -1    0    0  501  503  0.00000000000E+00  0.00000000000E+00  0.41607274847E+03  0.41607274847E+03  0.00000000000E+00 0. -1.
       21   -1    0    0  502  504  0.00000000000E+00  0.00000000000E+00 -0.33001709481E+04  0.33001709481E+04  0.00000000000E+00 0.  1.
        6    1    1    2  501    0 -0.10765232600E+02  0.13249009594E+03  0.43731882174E+02  0.22251065878E+03  0.17300000000E+03 0. -1.
       -6    1    1    2    0  504 -0.56958863196E+02 -0.30761583680E+03  0.12532002298E+03  0.37882175665E+03  0.17300000000E+03 0.  1.
        6    1    1    2  502    0  0.69861603118E+02  0.27637835616E+02 -0.26103786073E+04  0.26171835944E+04  0.17300000000E+03 0.  1.
       -6    1    1    2    0  503 -0.21375073218E+01  0.14748790525E+03 -0.44277149749E+03  0.49772768671E+03  0.17300000000E+03 0. -1.
</event>
<event>
 6   0  0.4500850E-05  0.3092021E+03  0.7546771E-02  0.1084880E+00
       21   -1    0    0  502  503  0.00000000000E+00  0.00000000000E+00  0.42977564795E+03  0.42977564795E+03  0.00000000000E+00 0. -1.
       21   -1    0    0  501  504  0.00000000000E+00  0.00000000000E+00 -0.27234055496E+04  0.27234055496E+04  0.00000000000E+00 0.  1.
        6    1    1    2  501    0  0.89803689367E+02  0.10513994947E+03  0.24769214612E+03  0.33226421843E+03  0.17300000000E+03 0. -1.
       -6    1    1    2    0  504  0.16918865351E+03  0.81686106400E+01 -0.13193820940E+04  0.13414132982E+04  0.17300000000E+03 0. -1.
        6    1    1    2  502    0 -0.49547209015E+03 -0.11462775162E+03 -0.85777607368E+03  0.10120972810E+04  0.17300000000E+03 0.  1.
       -6    1    1    2    0  503  0.23647974727E+03  0.13191915010E+01 -0.36416388010E+03  0.46740639994E+03  0.17300000000E+03 0. -1.
</event>
<event>
 6   0  0.4500850E-05  0.2157622E+03  0.7546771E-02  0.1137293E+00
       21   -1    0    0  502  503  0.00000000000E+00  0.00000000000E+00  0.93837472339E+03  0.93837472339E+03  0.00000000000E+00 0. -1.
       21   -1    0    0  501  504  0.00000000000E+00  0.00000000000E+00 -0.95236733561E+03  0.95236733561E+03  0.00000000000E+00 0. -1.
        6    1    1    2  501    0  0.45272535315E+02 -0.21117765523E+02  0.80410318506E+02  0.19720644461E+03  0.17300000000E+03 0. -1.
       -6    1    1    2    0  504 -0.17362347868E+03 -0.41657384322E+02 -0.67360349968E+03  0.71801888888E+03  0.17300000000E+03 0. -1.
        6    1    1    2  502    0 -0.25728102240E+02  0.35066297749E+02 -0.13529775204E+03  0.22388850393E+03  0.17300000000E+03 0.  1.
       -6    1    1    2    0  503  0.15407904560E+03  0.27708852096E+02  0.71449832099E+03  0.75162822158E+03  0.17300000000E+03 0. -1.
</event>
<event>
 6   0  0.4500850E-05  0.2435227E+03  0.7546771E-02  0.1124356E+00
       21   -1    0    0  504  503  0.00000000000E+00  0.00000000000E+00  0.12674883666E+04  0.12674883666E+04  0.00000000000E+00 0. -1.
       21   -1    0    0  501  504  0.00000000000E+00  0.00000000000E+00 -0.34440027995E+03  0.34440027995E+03  0.00000000000E+00 0.  1.
        6    1    1    2  501    0  0.11122646999E+03  0.47405175255E+02 -0.16879180452E+03  0.27025590010E+03  0.17300000000E+03 0.  1.
       -6    1    1    2    0  503 -0.83809775521E+00  0.42457971210E+02  0.30332116345E+03  0.35176143894E+03  0.17300000000E+03 0.  1.
        6    1    1    2  502    0  0.17424555106E+03 -0.74062488619E+02  0.42631505253E+03  0.49751410864E+03  0.17300000000E+03 0. -1.
       -6    1    1    2    0  502 -0.28463392329E+03 -0.15800657846E+02  0.36224367523E+03  0.49235719891E+03  0.17300000000E+03 0.  1.
</event>
<event>
 6   0  0.4500850E-05  0.2187346E+03  0.7546771E-02  0.1139419E+00
       21   -1    0    0  501  503  0.00000000000E+00  0.00000000000E+00  0.14516140120E+04  0.14516140120E+04  0.00000000000E+00 0.  1.
       21   -1    0    0  503  504  0.00000000000E+00  0.00000000000E+00 -0.29515555455E+03  0.29515555455E+03  0.00000000000E+00 0.  1.
        6    1    1    2  501    0  0.80578807128E+02 -0.17675126532E+02  0.44928864613E+03  0.48846150493E+03  0.17300000000E+03 0.  1.
       -6    1    1    2    0  504  0.13369695371E+03 -0.14325305127E+03 -0.12814651582E+03  0.29111310800E+03  0.17300000000E+03 0.  1.
        6    1    1    2  502    0 -0.53340643294E+02  0.13660097998E+03  0.55637401580E+03  0.60082118589E+03  0.17300000000E+03 0. -1.
       -6    1    1    2    0  502 -0.16093511754E+03  0.24327197826E+02  0.27894231131E+03  0.36637376769E+03  0.17300000000E+03 0.  1.
</event>
<event>
 6   0  0.4500850E-05  0.1873448E+03  0.7546771E-02  0.1162825E+00
       21   -1    0    0  504  503  0.00000000000E+00  0.00000000000E+00  0.79637645914E+03  0.79637645914E+03  0.00000000000E+00 0.  1.
       21   -1    0    0  501  504  0.00000000000E+00  0.00000000000E+00 -0.26084782913E+03  0.26084782913E+03  0.00000000000E+00 0.  1.
        6    1    1    2  501    0  0.26246578391E+02 -0.69539305657E+02 -0.92946245014E+02  0.20998238586E+03  0.17300000000E+03 0. -1.
       -6    1    1    2    0  502 -0.48541985620E+02  0.44885424731E+02  0.25153383131E+03  0.31236083944E+03  0.17300000000E+03 0.  1.
        6    1    1    2  502    0 -0.39269949066E+02 -0.24403478156E+02  0.24516872708E+03  0.30360231123E+03  0.17300000000E+03 0. -1.
       -6    1    1    2    0  503  0.61565356295E+02  0.49057359082E+02  0.13177231664E+03  0.23127875174E+03  0.17300000000E+03 0. -1.
</event>
<event>
 6   0  0.4500850E-05  0.2294690E+03  0.7546771E-02  0.1129197E+00
       21   -1    0    0  502  503  0.00000000000E+00  0.00000000000E+00  0.17469053763E+04  0.17469053763E+04  0.00000000000E+00 0. -1.
       21   -1    0    0  501  504  0.00000000000E+00  0.00000000000E+00 -0.12441309391E+04  0.12441309391E+04  0.00000000000E+00 0.  1.
        6    1    1    2  501    0 -0.11027179521E+03  0.15152238396E+03 -0.99375186830E+03  0.10259584189E+04  0.17300000000E+03 0.  1.
       -6    1    1    2    0  504  0.11137832779E+03 -0.20882150302E+03  0.10841421887E+04  0.11230782864E+04  0.17300000000E+03 0. -1.
        6    1    1    2  502    0  0.48887493973E+02  0.62489512123E+02  0.57105296760E+03  0.60193472901E+03  0.17300000000E+03 0.  1.
       -6    1    1    2    0  503 -0.49994026549E+02 -0.51903930656E+01 -0.15866885081E+03  0.24006488100E+03  0.17300000000E+03 0.  1.
</event>
<event>
 6   0  0.4500850E-05  0.4712788E+03  0.7546771E-02  0.1043237E+00
       21   -1    0    0  504  503  0.00000000000E+00  0.00000000000E+00  0.79917875622E+03  0.79917875622E+03  0.00000000000E+00 0. -1.
       21   -1    0    0  501  504  0.00000000000E+00  0.00000000000E+00 -0.86330803633E+03  0.86330803633E+03  0.00000000000E+00 0.  1.
        6    1    1    2  501    0 -0.68813786209E+02 -0.23424955014E+03 -0.50126675746E+03  0.58378553514E+03  0.17300000000E+03 0.  1.
       -6    1    1    2    0  503  0.13477672052E+03  0.13251170466E+03  0.37501289111E+03  0.45418915087E+03  0.17300000000E+03 0. -1.
        6    1    1    2  502    0  0.11131586255E+03  0.82647966143E+02  0.23405372084E+03  0.32238494351E+03  0.17300000000E+03 0. -1.
       -6    1    1    2    0  502 -0.17727879686E+03  0.19089879333E+02 -0.17192913461E+03  0.30212716303E+03  0.17300000000E+03 0. -1.
</event>
<event>
 6   0  0.4500850E-05  0.3251248E+03  0.7546771E-02  0.1089629E+00
       21   -1    0    0  504  503  0.00000000000E+00  0.00000000000E+00  0.83787495837E+03  0.83787495837E+03  0.00000000000E+00 0. -1.
       21   -1    0    0  502  504  0.00000000000E+00  0.00000000000E+00 -0.12778873132E+04  0.12778873132E+04  0.00000000000E+00 0. -1.
        6    1    1    2  501    0 -0.10038631697E+03  0.63173867619E+02 -0.35932069043E+03  0.41606334705E+03  0.17300000000E+03 0. -1.
       -6    1    1    2    0  503 -0.38191697912E+02 -0.14678689937E+03 -0.17434650166E+03  0.28867057740E+03  0.17300000000E+03 0.  1.
        6    1    1    2  502    0  0.32342377703E+03 -0.11767238600E+03 -0.56118498302E+03  0.68066681654E+03  0.17300000000E+03 0. -1.
       -6    1    1    2    0  501 -0.18484576215E+03  0.20128541775E+03  0.65483982026E+03  0.73036153060E+03  0.17300000000E+03 0. -1.
</event>
<event>
 6   0  0.4500850E-05  0.2964604E+03  0.7546771E-02  0.1100349E+00
       21   -1    0    0  502  503  0.00000000000E+00  0.00000000000E+00  0.11444904757E+04  0.11444904757E+04  0.00000000000E+00 0. -1.
       21   -1    0    0  503  504  0.00000000000E+00  0.00000000000E+00 -0.76098306596E+03  0.76098306596E+03  0.00000000000E+00 0.  1.
        6    1    1    2  501    0  0.22973365581E+03  0.44544117476E+02 -0.16241752815E+03  0.33327193771E+03  0.17300000000E+03 0.  1.
       -6    1    1    2    0  504 -0.12863469272E+03  0.18452650417E+03 -0.20875147107E+03  0.35228268704E+03  0.17300000000E+03 0. -1.
        6    1    1    2  502    0 -0.40628720533E+02  0.97769240612E+02  0.81546194237E+03  0.84030750133E+03  0.17300000000E+03 0. -1.
       -6    1    1    2    0  501 -0.60470242560E+02 -0.32683986226E+03 -0.60785533375E+02  0.37961141562E+03  0.17300000000E+03 0.  1.
</event>
<event>
 6   0  0.4500850E-05  0.6279053E+03  0.7546771E-02  0.9976475E-01
       21   -1    0    0  501  503  0.00000000000E+00  0.00000000000E+00  0.11774655668E+04  0.11774655668E+04  0.00000000000E+00 0. -1.
       21   -1    0    0  502  504  0.00000000000E+00  0.00000000000E+00 -0.11238071400E+04  0.11238071400E+04  0.00000000000E+00 0. -1.
        6    1    1    2  501    0 -0.41461741982E+03  0.13239154879E+03 -0.33504778445E+03  0.57586556146E+03  0.17300000000E+03 0.  1.
       -6    1    1    2    0  503  0.38442092318E+03  0.13968718555E+03  0.61531877040E+03  0.75883999973E+03  0.17300000000E+03 0. -1.
        6    1    1    2  502    0  0.51345722863E+02  0.10709776444E+03  0.25438663693E+03  0.32976942771E+03  0.17300000000E+03 0.  1.
       -6    1    1    2    0  504 -0.21149226225E+02 -0.37917649878E+03 -0.48099919601E+03  0.63679771793E+03  0.17300000000E+03 0. -1.
</event>
<event>
 6   0  0.4500850E-05  0.6205255E+03  0.7546771E-02  0.1024182E+00
       21   -1    0    0  504  503  0.00000000000E+00  0.00000000000E+00  0.92668441758E+03  0.92668441758E+03  0.00000000000E+00 0.  1.
       21   -1    0    0  501  504  0.00000000000E+00  0.00000000000E+00 -0.12727334272E+04  0.12727334272E+04  0.00000000000E+00 0. -1.
        6    1    1    2  501    0 -0.75995352169E+02  0.26416062240E+02 -0.60538100006E+03  0.63473479275E+03  0.17300000000E+03 0. -1.
       -6    1    1    2    0  503 -0.90938099483E+01  0.13753146814E+03  0.23743113454E+03  0.32449983938E+03  0.17300000000E+03 0.  1.
        6    1    1    2  502    0  0.18054028694E+03  0.31157110662E+03  0.42718843926E+03  0.58488487100E+03  0.17300000000E+03 0.  1.
       -6    1    1    2    0  502 -0.95451124820E+02 -0.47551863700E+03 -0.40528758340E+03  0.65529834169E+03  0.17300000000E+03 0. -1.
</event>
<event>
 6   0  0.4500850E-05  0.1980410E+03  0.7546771E-02  0.1154814E+00
       21   -1    0    0  504  503  0.00000000000E+00  0.00000000000E+00  0.12253156597E+03  0.12253156597E+03  0.00000000000E+00 0.  1.
       21   -1    0    0  502  504  0.00000000000E+00  0.00000000000E+00 -0.28837762777E+04  0.28837762777E+04  0.00000000000E+00 0.  1.
        6    1    1    2  501    0 -0.10973023221E+02  0.76264362629E+02 -0.13274730291E+02  0.18984698762E+03  0.17300000000E+03 0.  1.
       -6    1    1    2    0  503  0.24425197839E+02  0.63241705384E+02 -0.10854960910E+04  0.11012841900E+04  0.17300000000E+03 0.  1.
        6    1    1    2  502    0 -0.17406700792E+02 -0.16729115741E+03 -0.82497597650E+03  0.85953690228E+03  0.17300000000E+03 0.  1.
       -6    1    1    2    0  501  0.39545261737E+01  0.27785089400E+02 -0.83749791397E+03  0.85563976379E+03  0.17300000000E+03 0.  1.
</event>
<event>
 6   0  0.4500850E-05  0.3307822E+03  0.7546771E-02  0.1090689E+00
       21   -1    0    0  502  503  0.00000000000E+00  0.00000000000E+00  0.47792022154E+03  0.47792022154E+03  0.00000000000E+00 0. -1.
       21   -1    0    0  501  504  0.00000000000E+00  0.00000000000E+00 -0.95968810125E+03  0.95968810125E+03  0.00000000000E+00 0.  1.
        6    1    1    2  501    0 -0.17070722959E+03 -0.12664468912E+03 -0.36103707780E+03  0.45327321459E+03  0.17300000000E+03 0. -1.
       -6    1    1    2    0  504 -0.21312406361E+03  0.17284798767E+03 -0.76082477455E+01  0.32447677693E+03  0.17300000000E+03 0.  1.
        6    1    1    2  502    0  0.32496489960E+03  0.17945173823E+02  0.89781567781E+02  0.37935991505E+03  0.17300000000E+03 0. -1.
       -6    1    1    2    0  503  0.58866393594E+02 -0.64148472371E+02 -0.20290412195E+03  0.28049841622E+03  0.17300000000E+03 0.  1.
</event>
<event>
 6   0  0.4500850E-05  0.3045099E+03  0.7546771E-02  0.1091933E+00
       21   -1    0    0  502  503  0.00000000000E+00  0.00000000000E+00  0.86220873087E+03  0.86220873087E+03  0.00000000000E+00 0.  1.
       21   -1    0    0  503  504  0.00000000000E+00  0.00000000000E+00 -0.11744543814E+04  0.11744543814E+04  0.00000000000E+00 0.  1.
        6    1    1    2  501    0 -0.32776132833E+02 -0.30836440886E+03 -0.67119258871E+03  0.75933614077E+03  0.17300000000E+03 0.  1.
       -6    1    1    2    0  504 -0.79984900061E+02  0.69268717773E+01 -0.22548809529E+03  0.29532938714E+03  0.17300000000E+03 0.  1.
        6    1    1    2  502    0 -0.10709086495E+03 -0.12799106904E+03  0.33417152220E+03  0.41164277397E+03  0.17300000000E+03 0.  1.
       -6    1    1    2    0  501  0.21985189784E+03  0.42942860612E+03  0.25026351123E+03  0.57035481044E+03  0.17300000000E+03 0.  1.
</event>
<event>
 6   0  0.4500850E-05  0.3250281E+03  0.7546771E-02  0.1095106E+00
       21   -1    0    0  502  503  0.00000000000E+00  0.00000000000E+00  0.22630444591E+04  0.22630444591E+04  0.00000000000E+00 0.  1.
       21   -1    0    0  501  504  0.00000000000E+00  0.00000000000E+00 -0.53743377036E+03  0.53743377036E+03  0.00000000000E+00 0.  1.
        6    1    1    2  501    0  0.73641878374E+02  0.30912151058E+03  0.71699471519E+03  0.80311248039E+03  0.17300000000E+03 0. -1.
       -6    1    1    2    0  503 -0.28103425824E+03 -0.11006847313E+03  0.12654766952E+04  0.13124235555E+04  0.17300000000E+03 0.  1.
        6    1    1    2  502    0  0.44393178573E+02 -0.33703776404E+02  0.11391383246E+03  0.21450421924E+03  0.17300000000E+03 0. -1.
       -6    1    1    2    0  504  0.16299920130E+03 -0.16534926104E+03 -0.37077455406E+03  0.47043797433E+03  0.17300000000E+03 0.  1.
</event>
<event>
 6   0  0.4500850E-05  0.2599022E+03  0.7546771E-02  0.1118559E+00
       21   -1    0    0  504  503  0.00000000000E+00  0.00000000000E+00  0.10122893621E+04  0.10122893621E+04  0.00000000000E+00 0. -1.
       21   -1    0    0  501  504  0.00000000000E+00  0.00000000000E+00 -0.13215327770E+04  0.13215327770E+04  0.00000000000E+00 0. -1.
        6    1    1    2  501    0 -0.51686422017E+02 -0.11444591534E+02 -0.79852689768E+03  0.81876533342E+03  0.17300000000E+03 0. -1.
       -6    1    1    2    0  502 -0.11985235779E+03  0.15240429177E+03 -0.38038160156E+03  0.46066345484E+03  0.17300000000E+03 0. -1.
        6    1    1    2  502    0  0.90807953052E+02 -0.29159234284E+03  0.55561579092E+03  0.65719866545E+03  0.17300000000E+03 0. -1.
       -6    1    1    2    0  503  0.80730826758E+02  0.15063264261E+03  0.31404929343E+03  0.39719468540E+03  0.17300000000E+03 0. -1.
</event>
<event>
 6   0  0.4500850E-05  0.3588938E+03  0.7546771E-02  0.1059023E+00
       -1   -1    0    0    0  501  0.00000000000E+00  0.00000000000E+00  0.23687939518E+03  0.23687939518E+03  0.00000000000E+00 0.  1.
        1   -1    0    0  502    0  0.00000000000E+00  0.00000000000E+00 -0.90887029871E+03  0.90887029871E+03  0.00000000000E+00 0. -1.
        6    1    1    2  502    0  0.11860802139E+03 -0.84172264513E+02 -0.10425931361E+03  0.24890126019E+03  0.17300000000E+03 0. -1.
       -6    1    1    2    0  503 -0.46307146622E+02 -0.59695651237E+02 -0.24690972447E+03  0.31080755242E+03  0.17300000000E+03 0. -1.
        6    1    1    2  503    0 -0.44419941008E+02  0.88613919816E+02  0.18422897056E+02  0.20023476491E+03  0.17300000000E+03 0.  1.
       -6    1    1    2    0  501 -0.27880933759E+02  0.55253995934E+02 -0.33924476251E+03  0.38580611636E+03  0.17300000000E+03 0. -1.
</event>
<event>
 6   0  0.4500850E-05  0.2532901E+03  0.7546771E-02  0.1111391E+00
       21   -1    0    0  504  503  0.00000000000E+00  0.00000000000E+00  0.42324202085E+03  0.42324202085E+03  0.00000000000E+00 0. -1.
       21   -1    0    0  501  504  0.00000000000E+00  0.00000000000E+00 -0.69829576858E+03  0.69829576858E+03  0.00000000000E+00 0.  1.
        6    1    1    2  501    0  0.18370980304E+03  0.15159194942E+03 -0.83362012662E+01  0.29449601544E+03  0.17300000000E+03 0. -1.
       -6    1    1    2    0  503  0.12430975384E+03 -0.74795399325E+02  0.31667267341E+02  0.22798921571E+03  0.17300000000E+03 0. -1.
        6    1    1    2  502    0 -0.21577221648E+03  0.30806738005E+02 -0.24109084187E+03  0.36818541327E+03  0.17300000000E+03 0.  1.
       -6    1    1    2    0  502 -0.92247340402E+02 -0.10760328810E+03 -0.57293971931E+02  0.23086714500E+03  0.17300000000E+03 0. -1.
</event>
<event>
 6   0  0.4500850E-05  0.4501613E+03  0.7546771E-02  0.1037994E+00
       21   -1    0    0  501  503  0.00000000000E+00  0.00000000000E+00  0.38542602928E+04  0.38542602928E+04  0.00000000000E+00 0.  1.
       21   -1    0    0  502  504  0.00000000000E+00  0.00000000000E+00 -0.31946099571E+03  0.31946099571E+03  0.00000000000E+00 0. -1.
        6    1    1    2  501    0  0.89121102427E+01  0.27323666935E+03  0.14123900867E+04  0.14489694476E+04  0.17300000000E+03 0. -1.
       -6    1    1    2    0  504  0.13163494707E+03  0.16295071659E+03 -0.18638878875E+03  0.32946999241E+03  0.17300000000E+03 0. -1.
        6    1    1    2  502    0  0.43846810792E+02 -0.90457369882E+02  0.55589559941E+03  0.59080791804E+03  0.17300000000E+03 0.  1.
       -6    1    1    2    0  503 -0.18439386810E+03 -0.34573001605E+03  0.17529023997E+04  0.18044739304E+04  0.17300000000E+03 0.  1.
</event>
<event>
 6   0  0.4500850E-05  0.2461550E+03  0.7546771E-02  0.1117808E+00
       21   -1    0    0  502  503  0.00000000000E+00  0.00000000000E+00  0.17435660369E+03  0.17435660369E+03  0.00000000000E+00 0.  1.
       21   -1    0    0  501  504  0.00000000000E+00  0.00000000000E+00 -0.16194841490E+04  0.16194841490E+04  0.00000000000E+00 0.  1.
        6    1    1    2  501    0  0.46223678113E+02  0.24155477299E+03 -0.77362273153E+03  0.83000389608E+03  0.17300000000E+03 0.  1.
       -6    1    1    2    0  504  0.14507566187E+02 -0.91669387994E+02 -0.15802155109E+03  0.25201896115E+03  0.17300000000E+03 0.  1.
        6    1    1    2  502    0 -0.16595444705E+03 -0.15882166062E+03 -0.33748520992E+03  0.44338523350E+03  0.17300000000E+03 0.  1.
       -6    1    1    2    0  503  0.10522320275E+03  0.89362756152E+01 -0.17599805275E+03  0.26843266193E+03  0.17300000000E+03 0. -1.
</event>
<event>
 6   0  0.4500850E-05  0.7791480E+03  0.7546771E-02  0.9981418E-01
       21   -1    0    0  504  503  0.00000000000E+00  0.00000000000E+00  0.16828607756E+04  0.16828607756E+04  0.00000000000E+00 0. -1.
       21   -1    0    0  501  504  0.00000000000E+00  0.00000000000E+00 -0.20680838806E+04  0.20680838806E+04  0.00000000000E+00 0.  1.
        6    1    1    2  501    0  0.26850001139E+03 -0.59811914093E+03 -0.28882876957E+03  0.73701412537E+03  0.17300000000E+03 0.  1.
       -6    1    1    2    0  503 -0.21379010855E+03  0.45327672292E+03  0.92609171997E+03  0.10671180215E+04  0.17300000000E+03 0. -1.
        6    1    1    2  502    0 -0.16269988630E+03  0.76686775958E+02  0.41991236601E+03  0.48847467666E+03  0.17300000000E+03 0. -1.
       -6    1    1    2    0  502  0.10798998347E+03  0.68155642055E+02 -0.14423984214E+04  0.14583378327E+04  0.17300000000E+03 0.  1.
</event>
<event>
 6   0  0.4500850E-05  0.3580261E+03  0.7546771E-02  0.1078517E+00
       21   -1    0    0  501  503  0.00000000000E+00  0.00000000000E+00  0.85004244203E+03  0.85004244203E+03  0.00000000000E+00 0.  1.
       21   -1    0    0  502  504  0.00000000000E+00  0.00000000000E+00 -0.41395419916E+03  0.41395419916E+03  0.00000000000E+00 0.  1.
        6    1    1    2  501    0 -0.30810124333E+03 -0.67574502166E+02  0.11487283096E+03  0.37764726502E+03  0.17300000000E+03 0.  1.
       -6    1    1    2    0  504 -0.80169841972E+02  0.10454403346E+03  0.72726508236E+02  0.22929196125E+03  0.17300000000E+03 0.  1.
        6    1    1    2  502    0  0.75622002579E+02  0.95108419910E+02  0.18851061168E+02  0.21224669919E+03  0.17300000000E+03 0.  1.
       -6    1    1    2    0  503  0.31264908272E+03 -0.13207795120E+03  0.22963784250E+03  0.44481071573E+03  0.17300000000E+03 0.  1.
</event>
<event>
 6   0  0.4500850E-05  0.3386310E+03  0.7546771E-02  0.1075062E+00
       21   -1    0    0  501  503  0.00000000000E+00  0.00000000000E+00  0.37535381375E+03  0.37535381375E+03  0.00000000000E+00 0. -1.
       21   -1    0    0  502  504  0.00000000000E+00  0.00000000000E+00 -0.20621138683E+04  0.20621138683E+04  0.00000000000E+00 0.  1.
        6    1    1    2  501    0  0.30997512924E+02  0.12693810781E+03  0.12240192017E+03  0.24896859055E+03  0.17300000000E+03 0. -1.
       -6    1    1    2    0  504  0.41579013256E+03 -0.27108645937E+03 -0.68072489992E+03  0.86004923822E+03  0.17300000000E+03 0.  1.
        6    1    1    2  502    0 -0.91908077968E+02  0.16857754197E+03 -0.69576773834E+03  0.74221777678E+03  0.17300000000E+03 0.  1.
       -6    1    1    2    0  503 -0.35487956752E+03 -0.24429190410E+02 -0.43266933644E+03  0.58623207646E+03  0.17300000000E+03 0.  1.
</event>
<event>
 6   0  0.4500850E-05  0.2581575E+03  0.7546771E-02  0.1113553E+00
       21   -1    0    0  501  503  0.00000000000E+00  0.00000000000E+00  0.28742919236E+03  0.28742919236E+03  0.00000000000E+00 0. -1.
       21   -1    0    0  502  504  0.00000000000E+00  0.00000000000E+00 -0.13728255258E+04  0.13728255258E+04  0.00000000000E+00 0. -1.
        6    1    1    2  501    0 -0.11544455832E+03 -0.92033976375E+02 -0.55077842768E+03  0.59588889505E+03  0.17300000000E+03 0. -1.
       -6    1    1    2    0  504  0.29072392423E+03  0.53453337671E+02 -0.38551659948E+03  0.51568372856E+03  0.17300000000E+03 0. -1.
        6    1    1    2  502    0 -0.18082654010E+03  0.14635060198E+03 -0.18177839033E+03  0.34218287435E+03  0.17300000000E+03 0.  1.
       -6    1    1    2    0  503  0.55471741891E+01 -0.10776996327E+03  0.32677084032E+02  0.20649922021E+03  0.17300000000E+03 0.  1.
</event>
<event>
 6   0  0.4500850E-05  0.2681985E+03  0.7546771E-02  0.1111642E+00
       21   -1    0    0  504  503  0.00000000000E+00  0.00000000000E+00  0.72178160357E+03  0.72178160357E+03  0.00000000000E+00 0.  1.
       21   -1    0    0  502  504  0.00000000000E+00  0.00000000000E+00 -0.10043463114E+04  0.10043463114E+04  0.00000000000E+00 0.  1.
        6    1    1    2  501    0 -0.22809703333E+03  0.10936842326E+03  0.28534274357E+03  0.41873522651E+03  0.17300000000E+03 0.  1.
       -6    1    1    2    0  501  0.25399263194E+03  0.61853644619E+02 -0.75101994051E+03  0.81381698279E+03  0.17300000000E+03 0.  1.
        6    1    1    2  502    0  0.26332909543E+02 -0.35612581947E+02 -0.32219139982E+02  0.18146280913E+03  0.17300000000E+03 0.  1.
       -6    1    1    2    0  503 -0.52228508157E+02 -0.13560948593E+03  0.21533162906E+03  0.31211289658E+03  0.17300000000E+03 0.  1.
</event>
<event>
 6   0  0.4500850E-05  0.2770501E+03  0.7546771E-02  0.1102270E+00
       21   -1    0    0  502  503  0.00000000000E+00  0.00000000000E+00  0.11853034517E+04  0.11853034517E+04  0.00000000000E+00 0.  1.
       21   -1    0    0  501  504  0.00000000000E+00  0.00000000000E+00 -0.85307471796E+03  0.85307471796E+03  0.00000000000E+00 0. -1.
        6    1    1    2  501    0 -0.43839800606E+02 -0.11262691814E+03  0.11267107072E+03  0.23922901368E+03  0.17300000000E+03 0.  1.
       -6    1    1    2    0  504 -0.31479315413E+03  0.25060635301E+02  0.21701872006E+02  0.36072529240E+03  0.17300000000E+03 0. -1.
        6    1    1    2  502    0 -0.16743992826E+02  0.43568766128E+02  0.73653671281E+03  0.75801974116E+03  0.17300000000E+03 0.  1.
       -6    1    1    2    0  503  0.37537694756E+03  0.43997516709E+02 -0.53868092182E+03  0.68040412239E+03  0.17300000000E+03 0.  1.
</event>
<event>
 6   0  0.4500850E-05  0.2098492E+03  0.7546771E-02  0.1142731E+00
       21   -1    0    0  502  503  0.00000000000E+00  0.00000000000E+00  0.18396008222E+04  0.18396008222E+04  0.00000000000E+00 0.  1.
       21   -1    0    0  503  504  0.00000000000E+00  0.00000000000E+00 -0.34702894216E+03  0.34702894216E+03  0.00000000000E+00 0. -1.
        6    1    1    2  501    0  0.35784899715E+02 -0.14893247920E+03  0.11775373682E+03  0.25933835995E+03  0.17300000000E+03 0.  1.
       -6    1    1    2    0  501  0.18061809981E+02  0.25106650303E+02  0.92661490725E+02  0.19867492225E+03  0.17300000000E+03 0.  1.
        6    1    1    2  502    0 -0.15069319634E+02 -0.48767107956E+02  0.14293698168E+04  0.14407055176E+04  0.17300000000E+03 0.  1.
       -6    1    1    2    0  504 -0.38777390063E+02  0.17259293686E+03 -0.14721316424E+03  0.28791096464E+03  0.17300000000E+03 0. -1.
</event>
<event>
 6   0  0.4500850E-05  0.5223917E+03  0.7546771E-02  0.1009295E+00
       21   -1    0    0  501  503  0.00000000000E+00  0.00000000000E+00  0.12323442975E+04  0.12323442975E+04  0.00000000000E+00 0.  1.
       21   -1    0    0  502  504  0.00000000000E+00  0.00000000000E+00 -0.24710317074E+03  0.24710317074E+03  0.00000000000E+00 0.  1.
        6    1    1    2  501    0  0.27947901105E+02 -0.11318675856E+03  0.42765361944E+03  0.47582449045E+03  0.17300000000E+03 0.  1.
       -6    1    1    2    0  503  0.35590997578E+02  0.63100340685E+02  0.15440600795E+03  0.24293741456E+03  0.17300000000E+03 0.  1.
        6    1    1    2  502    0 -0.15871949905E+02  0.26702694928E+03  0.73101818739E+02  0.32684581432E+03  0.17300000000E+03 0.  1.
       -6    1    1    2    0  504 -0.47666948778E+02 -0.21694053141E+03  0.33007968060E+03  0.43383974889E+03  0.17300000000E+03 0.  1.
</event>
<event>
 6   0  0.4500850E-05  0.2531733E+03  0.7546771E-02  0.1119898E+00
       21   -1    0    0  501  503  0.00000000000E+00  0.00000000000E+00  0.13293087289E+04  0.13293087289E+04  0.00000000000E+00 0.  1.
       21   -1    0    0  502  504  0.00000000000E+00  0.00000000000E+00 -0.72161520497E+03  0.72161520497E+03  0.00000000000E+00 0.  1.
        6    1    1    2  501    0 -0.96875460144E+02  0.11522118782E+03 -0.56621203980E+03  0.61088939335E+03  0.17300000000E+03 0.  1.
       -6    1    1    2    0  504 -0.12600624735E+03  0.42447041700E+02  0.20283254662E+03  0.29790832094E+03  0.17300000000E+03 0. -1.
        6    1    1    2  502    0  0.28946680464E+03 -0.15747424269E+03  0.42234572620E+03  0.56293346014E+03  0.17300000000E+03 0.  1.
       -6    1    1    2    0  503 -0.66585097154E+02 -0.19398682485E+00  0.54872729094E+03  0.57919275946E+03  0.17300000000E+03 0.  1.
</event>
<event>
 6   0  0.4500850E-05  0.3178795E+03  0.7546771E-02  0.1086862E+00
       21   -1    0    0  501  503  0.00000000000E+00  0.00000000000E+00  0.44925148507E+03  0.44925148507E+03  0.00000000000E+00 0. -1.
       21   -1    0    0  502  504  0.00000000000E+00  0.00000000000E+00 -0.11333527563E+04  0.11333527563E+04  0.00000000000E+00 0. -1.
        6    1    1    2  501    0  0.87942042316E+02 -0.22183608300E+03  0.40039001236E+02  0.29745112564E+03  0.17300000000E+03 0. -1.
       -6    1    1    2    0  504  0.71768386166E+02 -0.28434442224E+03 -0.26268535235E+03  0.43004074929E+03  0.17300000000E+03 0. -1.
        6    1    1    2  502    0 -0.90258023568E+02  0.85483906226E+02 -0.29899466449E+03  0.36712507193E+03  0.17300000000E+03 0.  1.
       -6    1    1    2    0  503 -0.69452404913E+02  0.42069659901E+03 -0.16246025565E+03  0.48798729454E+03  0.17300000000E+03 0. -1.
</event>
<event>
 6   0  0.4500850E-05  0.2408865E+03  0.7546771E-02  0.1122576E+00
       21   -1    0    0  504  503  0.00000000000E+00  0.00000000000E+00  0.57182767734E+03  0.57182767734E+03  0.00000000000E+00 0.  1.
       21   -1    0    0  501  504  0.00000000000E+00  0.00000000000E+00 -0.10551535853E+04  0.10551535853E+04  0.00000000000E+00 0.  1.
        6    1    1    2  501    0 -0.47692132780E+02 -0.68777871859E+02 -0.58590426440E+03  0.61661798727E+03  0.17300000000E+03 0. -1.
       -6    1    1    2    0  502 -0.21434509875E+03  0.21012273311E+02 -0.28507074007E+03  0.39696305096E+03  0.17300000000E+03 0.  1.
        6    1    1    2  502    0  0.24257228274E+03  0.20898637762E+02  0.25802309200E+03  0.39469352847E+03  0.17300000000E+03 0.  1.
       -6    1    1    2    0  503  0.19464948788E+02  0.26866960786E+02  0.12962600449E+03  0.21870669595E+03  0.17300000000E+03 0.  1.
</event>
<event>
 6   0  0.4500850E-05  0.2190893E+03  0.7546771E-02  0.1138770E+00
       21   -1    0    0  501  503  0.00000000000E+00  0.00000000000E+00  0.79503656836E+03  0.79503656836E+03  0.00000000000E+00 0.  1.
       21   -1    0    0  503  504  0.00000000000E+00  0.00000000000E+00 -0.49042884541E+03  0.49042884541E+03  0.00000000000E+00 0.  1.
        6    1    1    2  501    0 -0.13907847771E+03 -0.11652986006E+03  0.35479012514E+03  0.43442728292E+03  0.17300000000E+03 0. -1.
       -6    1    1    2    0  504 -0.11175730727E+03 -0.18802400565E+02 -0.13974892712E+03  0.24960366308E+03  0.17300000000E+03 0.  1.
        6    1    1    2  502    0  0.60561340707E+02  0.12255854997E+02  0.22109867596E+03  0.28745696457E+03  0.17300000000E+03 0. -1.
       -6    1    1    2    0  502  0.19027444427E+03  0.12307640563E+03 -0.13153215103E+03  0.31397750320E+03  0.17300000000E+03 0.  1.
</event>
<event>
 6   0  0.4500850E-05  0.2997414E+03  0.7546771E-02  0.1103255E+00
       21   -1    0    0  501  503  0.00000000000E+00  0.00000000000E+00  0.22358382390E+04  0.22358382390E+04  0.00000000000E+00 0. -1.
       21   -1    0    0  503  504  0.00000000000E+00  0.00000000000E+00 -0.25802521433E+03  0.25802521433E+03  0.00000000000E+00 0.  1.
        6    1    1    2  501    0  0.42737674133E+02 -0.14150980147E+03  0.13835996744E+04  0.14021870744E+04  0.17300000000E+03 0. -1.
       -6    1    1    2    0  504 -0.94768760386E+02 -0.19880473031E+03  0.25015983781E+02  0.28117474670E+03  0.17300000000E+03 0.  1.
        6    1    1    2  502    0  0.90714285963E+02  0.27917460064E+03  0.19660644045E+03  0.39338356822E+03  0.17300000000E+03 0.  1.
       -6    1    1    2    0  502 -0.38683199709E+02  0.61139931141E+02  0.37259092605E+03  0.41711806397E+03  0.17300000000E+03 0.  1.
</event>
<event>
 6   0  0.4500850E-05  0.2314486E+03  0.7546771E-02  0.1132064E+00
       21   -1    0    0  501  503  0.00000000000E+00  0.00000000000E+00  0.11669937533E+04  0.11669937533E+04  0.00000000000E+00 0.  1.
       21   -1    0    0  503  504  0.00000000000E+00  0.00000000000E+00 -0.18788869812E+03  0.18788869812E+03  0.00000000000E+00 0. -1.
        6    1    1    2  501    0 -0.54550515008E+02 -0.15810124186E+03  0.35155517990E+03  0.42601855110E+03  0.17300000000E+03 0. -1.
       -6    1    1    2    0  504  0.44972137647E+02 -0.32315497149E+02  0.23972290240E+03  0.30077043481E+03  0.17300000000E+03 0. -1.
        6    1    1    2  502    0 -0.13183783699E+03  0.33534544907E+02  0.15374081416E+03  0.26846046060E+03  0.17300000000E+03 0. -1.
       -6    1    1    2    0  502  0.14141621435E+03  0.15688219410E+03  0.23408615867E+03  0.35963300487E+03  0.17300000000E+03 0.  1.
</event>
<event>
 6   0  0.4500850E-05  0.3251389E+03  0.7546771E-02  0.1091067E+00
       21   -1    0    0  501  503  0.00000000000E+00  0.00000000000E+00  0.57767933481E+03  0.57767933481E+03  0.00000000000E+00 0. -1.
       21   -1    0    0  502  504  0.00000000000E+00  0.00000000000E+00 -0.72981036548E+03  0.72981036548E+03  0.00000000000E+00 0.  1.
        6    1    1    2  501    0 -0.89203019630E+02 -0.25068306424E+03 -0.32252799578E+03  0.45249584028E+03  0.17300000000E+03 0.  1.
       -6    1    1    2    0  504 -0.60477592833E+02  0.34529554320E+03  0.14612995697E+03  0.41733621423E+03  0.17300000000E+03 0. -1.
        6    1    1    2  502    0  0.15626726480E+03  0.92863223471E+01  0.32586291900E+02  0.23557707922E+03  0.17300000000E+03 0. -1.
       -6    1    1    2    0  503 -0.65866523407E+01 -0.10389880130E+03 -0.83192837677E+01  0.20208056657E+03  0.17300000000E+03 0.  1.
</event>
<event>
 6   0  0.4500850E-05  0.3878765E+03  0.7546771E-02  0.1074503E+00
       21   -1    0    0  501  503  0.00000000000E+00  0.00000000000E+00  0.15714677976E+03  0.15714677976E+03  0.00000000000E+00 0. -1.
       21   -1    0    0  502  504  0.00000000000E+00  0.00000000000E+00 -0.11924064019E+04  0.11924064019E+04  0.00000000000E+00 0.  1.
        6    1    1    2  501    0  0.11527417896E+03  0.20347211421E+02 -0.15653416563E+03  0.26102507611E+03  0.17300000000E+03 0. -1.
       -6    1    1    2    0  504 -0.70430200946E+00 -0.66589706588E+02 -0.47191497335E+03  0.50701817239E+03  0.17300000000E+03 0.  1.
        6    1    1    2  502    0 -0.15596414169E+03  0.62214795808E+01 -0.23681735026E+03  0.33222729822E+03  0.17300000000E+03 0. -1.
       -6    1    1    2    0  503  0.41394264747E+02  0.40021015587E+02 -0.16999313289E+03  0.24928263492E+03  0.17300000000E+03 0.  1.
</event>
<event>
 6   0  0.4500850E-05  0.3293837E+03  0.7546771E-02  0.1081256E+00
       21   -1    0    0  501  503  0.00000000000E+00  0.00000000000E+00  0.98895867630E+03  0.98895867630E+03  0.00000000000E+00 0.  1.
       21   -1    0    0  503  504  0.00000000000E+00  0.00000000000E+00 -0.98413305524E+03  0.98413305524E+03  0.00000000000E+00 0.  1.
        6    1    1    2  501    0  0.14838733486E+03 -0.11017567944E+03  0.62855265877E+03  0.67761709419E+03  0.17300000000E+03 0.  1.
       -6    1    1    2    0  504 -0.80724786780E+02  0.22070543965E+02 -0.30763119874E+03  0.36272517772E+03  0.17300000000E+03 0.  1.
        6    1    1    2  502    0  0.86553303100E+02 -0.31781007334E+03 -0.65197453014E+01  0.37211049981E+03  0.17300000000E+03 0.  1.
       -6    1    1    2    0  502 -0.15421585118E+03  0.40591520881E+03 -0.30957609366E+03  0.56063895982E+03  0.17300000000E+03 0.  1.
</event>
<event>
 6   0  0.4500850E-05  0.1996408E+03  0.7546771E-02  0.1152964E+00
       21   -1    0    0  501  503  0.00000000000E+00  0.00000000000E+00  0.24332273464E+04  0.24332273464E+04  0.00000000000E+00 0.  1.
       21   -1    0    0  502  504  0.00000000000E+00  0.00000000000E+00 -0.12371082608E+03  0.12371082608E+03  0.00000000000E+00 0.  1.
        6    1    1    2  501    0  0.10329066909E+03 -0.63702739147E+02  0.39737391627E+03  0.45006891764E+03  0.17300000000E+03 0. -1.
       -6    1    1    2    0  504  0.44789679693E+02  0.72036678934E+02  0.88386840028E+02  0.21198262195E+03  0.17300000000E+03 0.  1.
        6    1    1    2  502    0 -0.27689937638E+02  0.47967219852E+02  0.14560358140E+04  0.14673230314E+04  0.17300000000E+03 0.  1.
       -6    1    1    2    0  503 -0.12039041114E+03 -0.56301159639E+02  0.36771995000E+03  0.42756360147E+03  0.17300000000E+03 0.  1.
</event>
<event>
 6   0  0.4500850E-05  0.4142499E+03  0.7546771E-02  0.1043156E+00
       -2   -1    0    0    0  501  0.00000000000E+00  0.00000000000E+00  0.55044397803E+03  0.55044397803E+03  0.00000000000E+00 0.  1.
        2   -1    0    0  502    0  0.00000000000E+00  0.00000000000E+00 -0.30897475815E+03  0.30897475815E+03  0.00000000000E+00 0. -1.
        6    1    1    2  502    0 -0.42163391261E+02  0.49053152355E+02 -0.28395751502E+02  0.18686701695E+03  0.17300000000E+03 0. -1.
       -6    1    1    2    0  503  0.20213000841E+02  0.47478021129E+02  0.44864784486E+01  0.18058753108E+03  0.17300000000E+03 0. -1.
        6    1    1    2  503    0  0.86304149305E+02  0.18152707800E+02  0.97032107556E+02  0.21707638491E+03  0.17300000000E+03 0.  1.
       -6    1    1    2    0  501 -0.64353758884E+02 -0.11468388128E+03  0.16834638538E+03  0.27488780326E+03  0.17300000000E+03 0.  1.
</event>
<event>
 6   0  0.4500850E-05  0.2239628E+03  0.7546771E-02  0.1131115E+00
       21   -1    0    0  501  503  0.00000000000E+00  0.00000000000E+00  0.36770100609E+03  0.36770100609E+03  0.00000000000E+00 0.  1.
       21   -1    0    0  502  504  0.00000000000E+00  0.00000000000E+00 -0.11057752849E+04  0.11057752849E+04  0.00000000000E+00 0. -1.
        6    1    1    2  501    0 -0.36714549853E+02 -0.55327980187E+02 -0.71233592730E+03  0.73604389603E+03  0.17300000000E+03 0. -1.
       -6    1    1    2    0  503  0.65986964509E+02  0.43249507005E+02  0.57203140174E+01  0.19022755146E+03  0.17300000000E+03 0. -1.
        6    1    1    2  502    0 -0.19242610301E+03  0.10983689783E+03 -0.63260707296E+02  0.28813688818E+03  0.17300000000E+03 0.  1.
       -6    1    1    2    0  504  0.16315368835E+03 -0.97758424651E+02  0.31802041766E+02  0.25906795532E+03  0.17300000000E+03 0.  1.
</event>
<event>
 6   0  0.4500850E-05  0.2259106E+03  0.7546771E-02  0.1130922E+00
       21   -1    0    0  501  503  0.00000000000E+00  0.00000000000E+00  0.13316944063E+04  0.13316944063E+04  0.00000000000E+00 0.  1.
       21   -1    0    0  502  504  0.00000000000E+00  0.00000000000E+00 -0.32572567222E+03  0.32572567222E+03  0.00000000000E+00 0. -1.
        6    1    1    2  501    0  0.44636892432E+02  0.42880454843E+02 -0.16239716547E+03  0.24522035993E+03  0.17300000000E+03 0. -1.
       -6    1    1    2    0  503  0.10929630558E+03  0.13133592113E+03  0.46698289272E+03  0.52649485153E+03  0.17300000000E+03 0.  1.
        6    1    1    2  502    0  0.55627477351E+02 -0.39125349744E+02  0.97611484614E+02  0.20995764134E+03  0.17300000000E+03 0. -1.
       -6    1    1    2    0  504 -0.20956067536E+03 -0.13509102623E+03  0.60377152224E+03  0.67574722574E+03  0.17300000000E+03 0.  1.
</event>
<event>
 6   0  0.4500850E-05  0.3569374E+03  0.7546771E-02  0.1077179E+00
       21   -1    0    0  504  503  0.00000000000E+00  0.00000000000E+00  0.11682560065E+04  0.11682560065E+04  0.00000000000E+00 0.  1.
       21   -1    0    0  501  504  0.00000000000E+00  0.00000000000E+00 -0.10264966461E+04  0.10264966461E+04  0.00000000000E+00 0.  1.
        6    1    1    2  501    0 -0.24828676466E+03  0.41310153098E+00 -0.48639049804E+03  0.57284483479E+03  0.17300000000E+03 0.  1.
       -6    1    1    2    0  503 -0.44374901300E+02 -0.64026367900E+02  0.70105492181E+03  0.72627509323E+03  0.17300000000E+03 0.  1.
        6    1    1    2  502    0  0.54420138931E+03  0.11295414102E+03 -0.24503035576E+02  0.58261753223E+03  0.17300000000E+03 0.  1.
       -6    1    1    2    0  502 -0.25153972336E+03 -0.49340874646E+02 -0.48402027823E+02  0.31301519234E+03  0.17300000000E+03 0.  1.
</event>
<event>
 6   0  0.4500850E-05  0.2869708E+03  0.7546771E-02  0.1102203E+00
       21   -1    0    0  501  503  0.00000000000E+00  0.00000000000E+00  0.84741643312E+03  0.84741643312E+03  0.00000000000E+00 0.  1.
       21   -1    0    0  503  504  0.00000000000E+00  0.00000000000E+00 -0.68386544277E+03  0.68386544277E+03  0.00000000000E+00 0. -1.
        6    1    1    2  501    0  0.47957710544E+02  0.14420569429E+03  0.12149468018E+03  0.26035587487E+03  0.17300000000E+03 0.  1.
       -6    1    1    2    0  504 -0.23879136640E+02 -0.12065439650E+02 -0.23298980489E+02  0.17660019958E+03  0.17300000000E+03 0. -1.
        6    1    1    2  502    0  0.31137109684E+03 -0.11024374449E+03 -0.36479674533E+03  0.52164289370E+03  0.17300000000E+03 0. -1.
       -6    1    1    2    0  502 -0.33544967074E+03 -0.21896510152E+02  0.43015203599E+03  0.57268290775E+03  0.17300000000E+03 0.  1.
</event>
<event>
 6   0  0.4500850E-05  0.2635804E+03  0.7546771E-02  0.1114875E+00
       21   -1    0    0  504  503  0.00000000000E+00  0.00000000000E+00  0.67363647293E+03  0.67363647293E+03  0.00000000000E+00 0.  1.
       21   -1    0    0  501  504  0.00000000000E+00  0.00000000000E+00 -0.16017163895E+04  0.16017163895E+04  0.00000000000E+00 0. -1.
        6    1    1    2  501    0  0.18627834856E+02 -0.10841412212E+03  0.10706002370E+02  0.20529061497E+03  0.17300000000E+03 0. -1.
       -6    1    1    2    0  502  0.19173259153E+03  0.30229185172E+02 -0.12981761629E+04  0.13239582849E+04  0.17300000000E+03 0. -1.
        6    1    1    2  502    0 -0.29383990292E+03 -0.13508460691E+03  0.19693162168E+03  0.41629413062E+03  0.17300000000E+03 0.  1.
       -6    1    1    2    0  503  0.83479476527E+02  0.21326954386E+03  0.16245862222E+03  0.32980983198E+03  0.17300000000E+03 0.  1.
</event>
<event>
 6   0  0.4500850E-05  0.3691211E+03  0.7546771E-02  0.1062562E+00
       21   -1    0    0  501  503  0.00000000000E+00  0.00000000000E+00  0.44190253372E+03  0.44190253372E+03  0.00000000000E+00 0. -1.
       21   -1    0    0  503  504  0.00000000000E+00  0.00000000000E+00 -0.93756054281E+03  0.93756054281E+03  0.00000000000E+00 0.  1.
        6    1    1    2  501    0  0.13899375758E+03  0.79693870186E+02  0.11543103904E+02  0.23607757378E+03  0.17300000000E+03 0. -1.
       -6    1    1    2    0  504  0.21840986073E+03 -0.27784741276E+02 -0.53103529586E+03  0.60033519351E+03  0.17300000000E+03 0. -1.
        6    1    1    2  502    0 -0.74981015100E+02 -0.75249205932E+02 -0.34571248700E+02  0.20593388953E+03  0.17300000000E+03 0. -1.
       -6    1    1    2    0  502 -0.28242260322E+03  0.23340077022E+02  0.58405431576E+02  0.33711641972E+03  0.17300000000E+03 0.  1.
</event>
<event>
 6   0  0.4500850E-05  0.6574826E+03  0.7546771E-02  0.9794043E-01
       21   -1    0    0  504  503  0.00000000000E+00  0.00000000000E+00  0.16168960995E+03  0.16168960995E+03  0.00000000000E+00 0. -1.
       21   -1    0    0  502  504  0.00000000000E+00  0.00000000000E+00 -0.27696512936E+04  0.27696512936E+04  0.00000000000E+00 0. -1.
        6    1    1    2  501    0  0.70442068838E+02 -0.20383477763E+03 -0.41474588911E+03  0.49845145618E+03  0.17300000000E+03 0.  1.
       -6    1    1    2    0  503  0.25070996362E+03 -0.22423520019E+03 -0.59911776676E+03  0.70852523547E+03  0.17300000000E+03 0. -1.
        6    1    1    2  502    0 -0.23365294252E+03  0.28873070380E+03 -0.86427986466E+03  0.95648721963E+03  0.17300000000E+03 0. -1.
       -6    1    1    2    0  501 -0.87499089942E+02  0.13933927402E+03 -0.72981816308E+03  0.76787699222E+03  0.17300000000E+03 0. -1.
</event>
<event>
 6   0  0.4500850E-05  0.5012923E+03  0.7546771E-02  0.1018842E+00
        1   -1    0    0  503    0  0.00000000000E+00  0.00000000000E+00  0.25616393282E+04  0.25616393282E+04  0.00000000000E+00 0.  1.
       -1   -1    0    0    0  501  0.00000000000E+00  0.00000000000E+00 -0.45094459799E+03  0.45094459799E+03  0.00000000000E+00 0. -1.
        6    1    1    2  502    0 -0.30147195202E+01 -0.11149800326E+03 -0.16968890019E+03  0.26676621996E+03  0.17300000000E+03 0. -1.
       -6    1    1    2    0  501  0.17145389776E+03  0.15344366137E+03 -0.11721012256E+03  0.31081925472E+03  0.17300000000E+03 0. -1.
        6    1    1    2  503    0 -0.16033039829E+03 -0.18218119508E+02  0.16715032237E+04  0.16881616520E+04  0.17300000000E+03 0.  1.
       -6    1    1    2    0  502 -0.81087799430E+01 -0.23727538608E+02  0.72609052927E+03  0.74683679951E+03  0.17300000000E+03 0.  1.
</event>
<event>
 6   0  0.4500850E-05  0.2070352E+03  0.7546771E-02  0.1149534E+00
       21   -1    0    0  501  503  0.00000000000E+00  0.00000000000E+00  0.21198402738E+04  0.21198402738E+04  0.00000000000E+00 0.  1.
       21   -1    0    0  503  504  0.00000000000E+00  0.00000000000E+00 -0.11745362299E+03  0.11745362299E+03  0.00000000000E+00 0.  1.
        6    1    1    2  501    0  0.14962603555E+02  0.51686654600E+02  0.42382568852E+03  0.46092581184E+03  0.17300000000E+03 0. -1.
       -6    1    1    2    0  502  0.47333687935E+02 -0.91448244778E+02  0.11786244280E+04  0.11956955306E+04  0.17300000000E+03 0.  1.
        6    1    1    2  502    0  0.27610027758E+02  0.11719781937E+03  0.18731750670E+03  0.28198313924E+03  0.17300000000E+03 0.  1.
       -6    1    1    2    0  504 -0.89906319249E+02 -0.77436229198E+02  0.21261902757E+03  0.29868941514E+03  0.17300000000E+03 0.  1.
</event>
<event>
 6   0  0.4500850E-05  0.3730778E+03  0.7546771E-02  0.1053522E+00
       -1   -1    0    0    0  501  0.00000000000E+00  0.00000000000E+00  0.57844766479E+03  0.57844766479E+03  0.00000000000E+00 0. -1.
        1   -1    0    0  503    0  0.00000000000E+00  0.00000000000E+00 -0.40930280482E+03  0.40930280482E+03  0.00000000000E+00 0.  1.
        6    1    1    2  502    0 -0.22989095385E+02 -0.52201276669E+02  0.20522684355E+03  0.27440941876E+03  0.17300000000E+03 0. -1.
       -6    1    1    2    0  502  0.14988605160E+03  0.25390820244E+01 -0.82104558576E+02  0.24319217492E+03  0.17300000000E+03 0.  1.
        6    1    1    2  503    0 -0.41394249380E+02  0.78298335609E+02  0.15327627037E+03  0.24752116738E+03  0.17300000000E+03 0. -1.
       -6    1    1    2    0  501 -0.85502706839E+02 -0.28636140964E+02 -0.10725369537E+03  0.22262770855E+03  0.17300000000E+03 0. -1.
</event>
<event>
 6   0  0.4500850E-05  0.3087151E+03  0.7546771E-02  0.1098340E+00
       21   -1    0    0  504  503  0.00000000000E+00  0.00000000000E+00  0.56713049610E+03  0.56713049610E+03  0.00000000000E+00 0.  1.
       21   -1    0    0  501  504  0.00000000000E+00  0.00000000000E+00 -0.10732842083E+04  0.10732842083E+04  0.00000000000E+00 0. -1.
        6    1    1    2  501    0  0.23508244714E+02 -0.86735928716E+02 -0.24187483264E+03  0.31065767907E+03  0.17300000000E+03 0.  1.
       -6    1    1    2    0  502  0.11391144255E+03  0.21858777884E+03 -0.50470108764E+03  0.58771474515E+03  0.17300000000E+03 0. -1.
        6    1    1    2  502    0 -0.33756858104E+03 -0.71483737985E+01  0.27703004749E+02  0.38039466693E+03  0.17300000000E+03 0.  1.
       -6    1    1    2    0  503  0.20014889378E+03 -0.12470347633E+03  0.21271920335E+03  0.36164761324E+03  0.17300000000E+03 0. -1.
</event>
<event>
 6   0  0.4500850E-05  0.5091348E+03  0.7546771E-02  0.1043187E+00
       21   -1    0    0  502  503  0.00000000000E+00  0.00000000000E+00  0.35099651578E+03  0.35099651578E+03  0.00000000000E+00 0. -1.
       21   -1    0    0  503  504  0.00000000000E+00  0.00000000000E+00 -0.12244753804E+04  0.12244753804E+04  0.00000000000E+00 0. -1.
        6    1    1    2  501    0 -0.21156063825E+02 -0.49201670860E+02 -0.20504573304E+03  0.27357108051E+03  0.17300000000E+03 0. -1.
       -6    1    1    2    0  501  0.72015769224E+02  0.23989500000E+03 -0.55446612479E+02  0.30941753163E+03  0.17300000000E+03 0. -1.
        6    1    1    2  502    0 -0.30645513585E+02  0.89821311325E+02  0.89192633049E+02  0.21654408618E+03  0.17300000000E+03 0. -1.
       -6    1    1    2    0  504 -0.20214191814E+02 -0.28051464047E+03 -0.70217915212E+03  0.77593919784E+03  0.17300000000E+03 0. -1.
</event>
<event>
 6   0  0.4500850E-05  0.4355240E+03  0.7546771E-02  0.1048525E+00
       21   -1    0    0  501  503  0.00000000000E+00  0.00000000000E+00  0.12034337398E+04  0.12034337398E+04  0.00000000000E+00 0. -1.
       21   -1    0    0  503  504  0.00000000000E+00  0.00000000000E+00 -0.55311553007E+03  0.55311553007E+03  0.00000000000E+00 0. -1.
        6    1    1    2  501    0  0.88177303764E+02 -0.13163470502E+03  0.48475335836E+03  0.53853296176E+03  0.17300000000E+03 0. -1.
       -6    1    1    2    0  502  0.93312933679E+02 -0.27851742122E+02  0.47028664512E+03  0.51047189120E+03  0.17300000000E+03 0. -1.
        6    1    1    2  502    0  0.14334034281E+03  0.15042256743E+03 -0.12463524771E+03  0.29771857121E+03  0.17300000000E+03 0. -1.
       -6    1    1    2    0  504 -0.32483058026E+03  0.90638797055E+01 -0.18008654600E+03  0.40982584574E+03  0.17300000000E+03 0.  1.
</event>
<event>
 6   0  0.4500850E-05  0.5603252E+03  0.7546771E-02  0.1018239E+00
       21   -1    0    0  504  503  0.00000000000E+00  0.00000000000E+00  0.11488666310E+04  0.11488666310E+04  0.00000000000E+00 0.  1.
       21   -1    0    0  502  504  0.00000000000E+00  0.00000000000E+00 -0.15653607272E+04  0.15653607272E+04  0.00000000000E+00 0.  1.
        6    1    1    2  501    0  0.26072340479E+02 -0.36803544204E+02 -0.94995630501E+02  0.20245354435E+03  0.17300000000E+03 0. -1.
       -6    1    1    2    0  503  0.24297966989E+03  0.12321027103E+03  0.21309634802E+03  0.38672851512E+03  0.17300000000E+03 0.  1.
        6    1    1    2  502    0 -0.75957431697E+03  0.67778953888E+03 -0.60700039283E+03  0.11978022704E+04  0.17300000000E+03 0.  1.
       -6    1    1    2    0  501  0.49052230660E+03 -0.76419626571E+03  0.72405579118E+02  0.92724302838E+03  0.17300000000E+03 0.  1.
</event>
<event>
 6   0  0.4500850E-05  0.3098468E+03  0.7546771E-02  0.1087739E+00
       21   -1    0    0  502  503  0.00000000000E+00  0.00000000000E+00  0.80428636056E+03  0.80428636056E+03  0.00000000000E+00 0.  1.
       21   -1    0    0  501  504  0.00000000000E+00  0.00000000000E+00 -0.14959732202E+04  0.14959732202E+04  0.00000000000E+00 0.  1.
        6    1    1    2  501    0  0.20330863855E+03  0.32074921776E+03 -0.30196198589E+03  0.51509659689E+03  0.17300000000E+03 0.  1.
       -6    1    1    2    0  503 -0.22018722657E+01  0.13457210050E+03  0.50638622314E+03  0.55178846079E+03  0.17300000000E+03 0.  1.
        6    1    1    2  502    0 -0.15015839844E+03 -0.44773478062E+03 -0.92275428884E+03  0.10509131534E+04  0.17300000000E+03 0.  1.
       -6    1    1    2    0  504 -0.50948367842E+02 -0.75865376382E+01  0.26643191992E+02  0.18246136966E+03  0.17300000000E+03 0. -1.
</event>
<event>
 6   0  0.4500850E-05  0.4014513E+03  0.7546771E-02  0.1043278E+00
        1   -1    0    0  502    0  0.00000000000E+00  0.00000000000E+00  0.18899306714E+03  0.18899306714E+03  0.00000000000E+00 0.  1.
       -1   -1    0    0    0  501  0.00000000000E+00  0.00000000000E+00 -0.19941186173E+04  0.19941186173E+04  0.00000000000E+00 0. -1.
        6    1    1    2  502    0 -0.28792853239E+01  0.18274409356E+03 -0.89252794586E+03  0.92732886731E+03  0.17300000000E+03 0. -1.
       -6    1    1    2    0  503  0.10094633879E+03 -0.60996733461E+02 -0.39675808892E+03  0.44861647978E+03  0.17300000000E+03 0.  1.
        6    1    1    2  503    0  0.11387890263E+02  0.14367082044E+02 -0.53305568366E+03  0.56072583227E+03  0.17300000000E+03 0. -1.
       -6    1    1    2    0  501 -0.10945494373E+03 -0.13611444214E+03  0.17216168327E+02  0.24644050503E+03  0.17300000000E+03 0.  1.
</event>
<event>
 6   0  0.4500850E-05  0.2603981E+03  0.7546771E-02  0.1116298E+00
       21   -1    0    0  504  503  0.00000000000E+00  0.00000000000E+00  0.39100080217E+03  0.39100080217E+03  0.00000000000E+00 0.  1.
       21   -1    0    0  501  504  0.00000000000E+00  0.00000000000E+00 -0.15530609986E+04  0.15530609986E+04  0.00000000000E+00 0. -1.
        6    1    1    2  501    0  0.16350475841E+03 -0.54254028737E+02 -0.84227738415E+03  0.87694783055E+03  0.17300000000E+03 0. -1.
       -6    1    1    2    0  503  0.13603119833E+03 -0.31895870171E+02  0.17254898053E+03  0.28146755432E+03  0.17300000000E+03 0.  1.
        6    1    1    2  502    0 -0.29739086944E+02  0.10612898923E+03 -0.89492915715E+01  0.20532137119E+03  0.17300000000E+03 0.  1.
       -6    1    1    2    0  502 -0.26979686980E+03 -0.19979090322E+02 -0.48338250123E+03  0.58032504470E+03  0.17300000000E+03 0. -1.
</event>
<event>
 6   0  0.4500850E-05  0.3154308E+03  0.7546771E-02  0.1099592E+00
       21   -1    0    0  502  503  0.00000000000E+00  0.00000000000E+00  0.45108550899E+03  0.45108550899E+03  0.00000000000E+00 0. -1.
       21   -1    0    0  503  504  0.00000000000E+00  0.00000000000E+00 -0.86290410873E+03  0.86290410873E+03  0.00000000000E+00 0.  1.
        6    1    1    2  501    0  0.86459735470E+02 -0.29387620183E+03 -0.11645280495E+03  0.37057895736E+03  0.17300000000E+03 0.  1.
       -6    1    1    2    0  501  0.16788303650E+03  0.22963443055E+03 -0.50267247489E+01  0.33297290220E+03  0.17300000000E+03 0. -1.
        6    1    1    2  502    0  0.99980172028E+01  0.35603830169E+02 -0.22558784106E+03  0.28668182207E+03  0.17300000000E+03 0.  1.
       -6    1    1    2    0  504 -0.26434078918E+03  0.28637941112E+02 -0.64751228988E+02  0.32375593608E+03  0.17300000000E+03 0.  1.
</event>
<event>
 6   0  0.4500850E-05  0.3129752E+03  0.7546771E-02  0.1093060E+00
       21   -1    0    0  501  503  0.00000000000E+00  0.00000000000E+00  0.23432239489E+04  0.23432239489E+04  0.00000000000E+00 0.  1.
       21   -1    0    0  502  504  0.00000000000E+00  0.00000000000E+00 -0.23020611425E+03  0.23020611425E+03  0.00000000000E+00 0.  1.
        6    1    1    2  501    0  0.13528694291E+03  0.26642346179E+03  0.32189739956E+03  0.47204973653E+03  0.17300000000E+03 0.  1.
       -6    1    1    2    0  503  0.62597529094E+02  0.90205283449E+02  0.11802878936E+04  0.11979415493E+04  0.17300000000E+03 0.  1.
        6    1    1    2  502    0  0.63247694458E+02 -0.29244600475E+03  0.30424032215E+03  0.46045207152E+03  0.17300000000E+03 0.  1.
       -6    1    1    2    0  504 -0.26113216646E+03 -0.64182740489E+02  0.30659221937E+03  0.44298670580E+03  0.17300000000E+03 0.  1.
</event>
<event>
 6   0  0.4500850E-05  0.4381531E+03  0.7546771E-02  0.1052277E+00
       21   -1    0    0  504  503  0.00000000000E+00  0.00000000000E+00  0.33781994978E+03  0.33781994978E+03  0.00000000000E+00 0.  1.
       21   -1    0    0  502  504  0.00000000000E+00  0.00000000000E+00 -0.16354887046E+04  0.16354887046E+04  0.00000000000E+00 0. -1.
        6    1    1    2  501    0  0.94166801907E+02 -0.77359278528E+02 -0.71627756671E+02  0.22340854971E+03  0.17300000000E+03 0. -1.
       -6    1    1    2    0  501 -0.16368231259E+03  0.54855235291E+02 -0.98577461289E+02  0.26352895888E+03  0.17300000000E+03 0.  1.
        6    1    1    2  502    0 -0.19678102450E+02  0.16313613007E+03 -0.12093511439E+04  0.12326637067E+04  0.17300000000E+03 0. -1.
       -6    1    1    2    0  503  0.89193613128E+02 -0.14063208684E+03  0.81887607007E+02  0.25370743910E+03  0.17300000000E+03 0.  1.
</event>
<event>
 6   0  0.4500850E-05  0.4835183E+03  0.7546771E-02  0.1050857E+00
       21   -1    0    0  502  503  0.00000000000E+00  0.00000000000E+00  0.58246583039E+03  0.58246583039E+03  0.00000000000E+00 0.  1.
       21   -1    0    0  501  504  0.00000000000E+00  0.00000000000E+00 -0.16734964202E+04  0.16734964202E+04  0.00000000000E+00 0.  1.
        6    1    1    2  501    0 -0.57054523722E+02 -0.23962493500E+02  0.28749145365E+02  0.18597024797E+03  0.17300000000E+03 0. -1.
       -6    1    1    2    0  504 -0.12580102431E+03 -0.68806878645E+02  0.39042647304E+03  0.45046877263E+03  0.17300000000E+03 0.  1.
        6    1    1    2  502    0  0.23660153154E+03  0.12958713146E+03 -0.50965743134E+03  0.60204053575E+03  0.17300000000E+03 0.  1.
       -6    1    1    2    0  503 -0.53745983509E+02 -0.36817759311E+02 -0.10005487769E+04  0.10174826942E+04  0.17300000000E+03 0.  1.
</event>
<event>
 6   0  0.4500850E-05  0.4982562E+03  0.7546771E-02  0.1043107E+00
       21   -1    0    0  501  503  0.00000000000E+00  0.00000000000E+00  0.21152947350E+04  0.21152947350E+04  0.00000000000E+00 0.  1.
       21   -1    0    0  503  504  0.00000000000E+00  0.00000000000E+00 -0.95871033614E+03  0.95871033614E+03  0.00000000000E+00 0. -1.
        6    1    1    2  501    0  0.24343642659E+03 -0.33143205099E+03  0.18535571302E+04  0.19064919442E+04  0.17300000000E+03 0.  1.
       -6    1    1    2    0  504 -0.58244757965E+02 -0.49369117979E+02 -0.55327464314E+03  0.58469786418E+03  0.17300000000E+03 0. -1.
        6    1    1    2  502    0 -0.83296995570E+02  0.23409541124E+03 -0.15781277645E+02  0.30317832996E+03  0.17300000000E+03 0.  1.
       -6    1    1    2    0  502 -0.10189467305E+03  0.14670575774E+03 -0.12791681060E+03  0.27963693280E+03  0.17300000000E+03 0.  1.
</event>
<event>
 6   0  0.4500850E-05  0.2038650E+03  0.7546771E-02  0.1152383E+00
       21   -1    0    0  501  503  0.00000000000E+00  0.00000000000E+00  0.42255595937E+03  0.42255595937E+03  0.00000000000E+00 0.  1.
       21   -1    0    0  503  504  0.00000000000E+00  0.00000000000E+00 -0.13882938653E+04  0.13882938653E+04  0.00000000000E+00 0.  1.
        6    1    1    2  501    0 -0.32575610824E+02  0.21853454359E+02 -0.38963531471E+02  0.18162020998E+03  0.17300000000E+03 0. -1.
       -6    1    1    2    0  502  0.56614008709E+02  0.54348157572E+02  0.24677793801E+03  0.31142771056E+03  0.17300000000E+03 0.  1.
        6    1    1    2  502    0  0.75237251369E+02 -0.84330364712E+02 -0.10759110242E+04  0.10955755503E+04  0.17300000000E+03 0.  1.
       -6    1    1    2    0  504 -0.99275649254E+02  0.81287527806E+01 -0.97641288218E+02  0.22222635380E+03  0.17300000000E+03 0.  1.
</event>
<event>
 6   0  0.4500850E-05  0.3189136E+03  0.7546771E-02  0.1078118E+00
       21   -1    0    0  502  503  0.00000000000E+00  0.00000000000E+00  0.69644807302E+03  0.69644807302E+03  0.00000000000E+00 0. -1.
       21   -1    0    0  501  504  0.00000000000E+00  0.00000000000E+00 -0.92014054361E+03  0.92014054361E+03  0.00000000000E+00 0.  1.
        6    1    1    2  501    0  0.45785798462E+02 -0.31096136476E+03 -0.47028444786E+03  0.59151481099E+03  0.17300000000E+03 0.  1.
       -6    1    1    2    0  503 -0.14941733284E+03 -0.10707324818E+03 -0.95644597229E+02  0.26993908351E+03  0.17300000000E+03 0. -1.
        6    1    1    2  502    0 -0.57946932641E+02  0.34885750595E+03  0.32032917481E+03  0.50754230040E+03  0.17300000000E+03 0. -1.
       -6    1    1    2    0  504  0.16157846702E+03  0.69177106989E+02  0.21907399689E+02  0.24759242173E+03  0.17300000000E+03 0.  1.
</event>
<event>
 6   0  0.4500850E-05  0.5071342E+03  0.7546771E-02  0.1043051E+00
       21   -1    0    0  501  503  0.00000000000E+00  0.00000000000E+00  0.12931620417E+04  0.12931620417E+04  0.00000000000E+00 0. -1.
       21   -1    0    0  503  504  0.00000000000E+00  0.00000000000E+00 -0.45363127955E+03  0.45363127955E+03  0.00000000000E+00 0. -1.
        6    1    1    2  501    0 -0.26018410164E+03 -0.52540215679E+01  0.63440738234E+03  0.70719523348E+03  0.17300000000E+03 0. -1.
       -6    1    1    2    0  502 -0.96418121198E+02  0.65246569063E+02  0.39392640689E+03  0.44571356600E+03  0.17300000000E+03 0. -1.
        6    1    1    2  502    0  0.28568567986E+03  0.12280051231E+02 -0.25228532629E+02  0.33516053794E+03  0.17300000000E+03 0. -1.
       -6    1    1    2    0  504  0.70916542975E+02 -0.72272598726E+02 -0.16357449443E+03  0.25872398386E+03  0.17300000000E+03 0.  1.
</event>
<event>
 6   0  0.4500850E-05  0.4804929E+03  0.7546771E-02  0.1041431E+00
       21   -1    0    0  502  503  0.00000000000E+00  0.00000000000E+00  0.16014949207E+04  0.16014949207E+04  0.00000000000E+00 0. -1.
       21   -1    0    0  501  504  0.00000000000E+00  0.00000000000E+00 -0.25219033933E+03  0.25219033933E+03  0.00000000000E+00 0. -1.
        6    1    1    2  501    0 -0.18677637230E+02 -0.17530661526E+03 -0.22420436254E+02  0.24801802243E+03  0.17300000000E+03 0. -1.
       -6    1    1    2    0  503 -0.11985028070E+02  0.25102168424E+03  0.60866121947E+03  0.68084727138E+03  0.17300000000E+03 0. -1.
        6    1    1    2  502    0  0.11680894844E+03  0.99181657424E+02  0.51729417446E+03  0.56657179116E+03  0.17300000000E+03 0. -1.
       -6    1    1    2    0  504 -0.86146283144E+02 -0.17489672640E+03  0.24576962367E+03  0.35824817504E+03  0.17300000000E+03 0.  1.
</event>
<event>
 6   0  0.4500850E-05  0.3225708E+03  0.7546771E-02  0.1088202E+00
       21   -1    0    0  502  503  0.00000000000E+00  0.00000000000E+00  0.12777291316E+04  0.12777291316E+04  0.00000000000E+00 0.  1.
       21   -1    0    0  501  504  0.00000000000E+00  0.00000000000E+00 -0.39127991678E+03  0.39127991678E+03  0.00000000000E+00 0.  1.
        6    1    1    2  501    0  0.84486589473E+02 -0.23159176916E+03  0.36476000695E+03  0.47302388313E+03  0.17300000000E+03 0.  1.
       -6    1    1    2    0  503  0.24314662234E+03  0.12684417095E+03  0.49954445388E+03  0.59555300777E+03  0.17300000000E+03 0.  1.
        6    1    1    2  502    0 -0.26710159293E+03  0.21488025477E+03  0.38882974064E+02  0.38595034720E+03  0.17300000000E+03 0.  1.
       -6    1    1    2    0  504 -0.60531618889E+02 -0.11013265655E+03 -0.16738220080E+02  0.21448181027E+03  0.17300000000E+03 0. -1.
</event>
<event>
 6   0  0.4500850E-05  0.2398098E+03  0.7546771E-02  0.1123699E+00
       21   -1    0    0  502  503  0.00000000000E+00  0.00000000000E+00  0.10283925573E+04  0.10283925573E+04  0.00000000000E+00 0.  1.
       21   -1    0    0  501  504  0.00000000000E+00  0.00000000000E+00 -0.37023110706E+03  0.37023110706E+03  0.00000000000E+00 0.  1.
        6    1    1    2  501    0  0.85618751970E+02 -0.37972711625E+02  0.47029026288E+03  0.50977880387E+03  0.17300000000E+03 0.  1.
       -6    1    1    2    0  503  0.10352583441E+03  0.10207014020E+03  0.22730377444E+03  0.32051820196E+03  0.17300000000E+03 0.  1.
        6    1    1    2  502    0 -0.30189964666E+03 -0.88324019642E+02 -0.28608975749E+02  0.36012775871E+03  0.17300000000E+03 0.  1.
       -6    1    1    2    0  504  0.11275506028E+03  0.24226591070E+02 -0.10823611305E+02  0.20819889984E+03  0.17300000000E+03 0.  1.
</event>
<event>
 6   0  0.4500850E-05  0.6280182E+03  0.7546771E-02  0.9874685E-01
        1   -1    0    0  503    0  0.00000000000E+00  0.00000000000E+00  0.44991743534E+03  0.44991743534E+03  0.00000000000E+00 0.  1.
       -1   -1    0    0    0  501  0.00000000000E+00  0.00000000000E+00 -0.20593281097E+04  0.20593281097E+04  0.00000000000E+00 0. -1.
        6    1    1    2  502    0  0.23159993509E+02 -0.19977858571E+03 -0.18208674983E+02  0.26591055724E+03  0.17300000000E+03 0. -1.
       -6    1    1    2    0  501 -0.19774824549E+02  0.28982301207E+03  0.17807313456E+03  0.38213539912E+03  0.17300000000E+03 0.  1.
        6    1    1    2  503    0  0.52099318186E+01  0.14700183030E+03 -0.39237457007E+03  0.45334698051E+03  0.17300000000E+03 0.  1.
       -6    1    1    2    0  502 -0.85951007792E+01 -0.23704625665E+03 -0.13769005639E+04  0.14078526082E+04  0.17300000000E+03 0. -1.
</event>
<event>
 6   0  0.4500850E-05  0.3218274E+03  0.7546771E-02  0.1095112E+00
       21   -1    0    0  502  503  0.00000000000E+00  0.00000000000E+00  0.28909090336E+03  0.28909090336E+03  0.00000000000E+00 0. -1.
       21   -1    0    0  501  504  0.00000000000E+00  0.00000000000E+00 -0.15544321491E+04  0.15544321491E+04  0.00000000000E+00 0. -1.
        6    1    1    2  501    0  0.52240343314E+02 -0.18140779527E+03 -0.19199159240E+03  0.32004314272E+03  0.17300000000E+03 0.  1.
       -6    1    1    2    0  503 -0.64182822143E+02  0.31585048677E+02 -0.76376325868E+03  0.78637164577E+03  0.17300000000E+03 0.  1.
        6    1    1    2  502    0 -0.25671845947E+03  0.22390979527E+02 -0.22353082876E+03  0.38249281667E+03  0.17300000000E+03 0. -1.
       -6    1    1    2    0  504  0.26866093830E+03  0.12743176706E+03 -0.86055565879E+02  0.35461544727E+03  0.17300000000E+03 0. -1.
</event>
<event>
 6   0  0.4500850E-05  0.3953978E+03  0.7546771E-02  0.1071117E+00
       21   -1    0    0  501  503  0.00000000000E+00  0.00000000000E+00  0.12282705539E+04  0.12282705539E+04  0.00000000000E+00 0. -1.
       21   -1    0    0  502  504  0.00000000000E+00  0.00000000000E+00 -0.39905615393E+03  0.39905615393E+03  0.00000000000E+00 0. -1.
        6    1    1    2  501    0 -0.81318916533E+02 -0.15175666004E+03  0.78179830283E+02  0.25628877447E+03  0.17300000000E+03 0.  1.
       -6    1    1    2    0  504  0.37968725181E+02 -0.73986908610E+02 -0.70876109361E+02  0.20461698272E+03  0.17300000000E+03 0.  1.
        6    1    1    2  502    0  0.30610404829E+03 -0.10913848886E+03  0.36177488158E+03  0.51615982319E+03  0.17300000000E+03 0. -1.
       -6    1    1    2    0  503 -0.26275385694E+03  0.33488205752E+03  0.46013579747E+03  0.65026112747E+03  0.17300000000E+03 0. -1.
</event>
<event>
 6   0  0.4500850E-05  0.2590244E+03  0.7546771E-02  0.1109599E+00
       21   -1    0    0  501  503  0.00000000000E+00  0.00000000000E+00  0.94765362193E+03  0.94765362193E+03  0.00000000000E+00 0. -1.
       21   -1    0    0  503  504  0.00000000000E+00  0.00000000000E+00 -0.81471242020E+03  0.81471242020E+03  0.00000000000E+00 0.  1.
        6    1    1    2  501    0  0.20627911902E+02 -0.97736752913E+02  0.59635340359E+03  0.62892317940E+03  0.17300000000E+03 0. -1.
       -6    1    1    2    0  504  0.89356169835E+01 -0.10258488133E+03 -0.14561100510E+03  0.24846542603E+03  0.17300000000E+03 0. -1.
        6    1    1    2  502    0  0.25599583478E+03  0.89933254842E+02 -0.41022945809E+03  0.52138188120E+03  0.17300000000E+03 0.  1.
       -6    1    1    2    0  502 -0.28555936367E+03  0.11038837940E+03  0.92428261335E+02  0.36359555550E+03  0.17300000000E+03 0.  1.
</event>
<event>
 6   0  0.4500850E-05  0.4812789E+03  0.7546771E-02  0.1018784E+00
        1   -1    0    0  503    0  0.00000000000E+00  0.00000000000E+00  0.24167043345E+04  0.24167043345E+04  0.00000000000E+00 0. -1.
       -1   -1    0    0    0  501  0.00000000000E+00  0.00000000000E+00 -0.16326614787E+03  0.16326614787E+03  0.00000000000E+00 0.  1.
        6    1    1    2  502    0 -0.15759911931E+03 -0.10259212420E+03  0.10060256612E+04  0.10379688133E+04  0.17300000000E+03 0. -1.
       -6    1    1    2    0  501  0.16237126865E+03  0.29199366610E+03  0.57331797273E+03  0.68574574572E+03  0.17300000000E+03 0.  1.
        6    1    1    2  503    0 -0.10931847282E+03 -0.24351831803E+03  0.42711603921E+03  0.53254935045E+03  0.17300000000E+03 0. -1.
       -6    1    1    2    0  502  0.10454632348E+03  0.54116776126E+02  0.24697851343E+03  0.32370657285E+03  0.17300000000E+03 0.  1.
</event>
<event>
 6   0  0.4500850E-05  0.2371890E+03  0.7546771E-02  0.1126598E+00
       21   -1    0    0  501  503  0.00000000000E+00  0.00000000000E+00  0.83946271809E+03  0.83946271809E+03  0.00000000000E+00 0. -1.
       21   -1    0    0  503  504  0.00000000000E+00  0.00000000000E+00 -0.77351915983E+03  0.77351915983E+03  0.00000000000E+00 0. -1.
        6    1    1    2  501    0  0.15204967743E+03 -0.20239901970E+03  0.10281646326E+03  0.32339556692E+03  0.17300000000E+03 0. -1.
       -6    1    1    2    0  502  0.47111196958E+02  0.88200535125E+02  0.37640124931E+03  0.42615220258E+03  0.17300000000E+03 0. -1.
        6    1    1    2  502    0 -0.67272494511E+01  0.44251535980E+02 -0.53864406177E+03  0.56751200834E+03  0.17300000000E+03 0. -1.
       -6    1    1    2    0  504 -0.19243362494E+03  0.69946948597E+02  0.12536990746E+03  0.29592210009E+03  0.17300000000E+03 0. -1.
</event>
<event>
 6   0  0.4500850E-05  0.2101069E+03  0.7546771E-02  0.1148998E+00
       21   -1    0    0  504  503  0.00000000000E+00  0.00000000000E+00  0.50952552792E+03  0.50952552792E+03  0.00000000000E+00 0. -1.
       21   -1    0    0  501  504  0.00000000000E+00  0.00000000000E+00 -0.51953416206E+03  0.51953416206E+03  0.00000000000E+00 0.  1.
        6    1    1    2  501    0 -0.61798079681E+02 -0.79967741892E+02 -0.24011288838E+03  0.31272518537E+03  0.17300000000E+03 0.  1.
       -6    1    1    2    0  503 -0.10287275233E+03 -0.99271194319E+00  0.21797675447E+03  0.29669286162E+03  0.17300000000E+03 0. -1.
        6    1    1    2  502    0  0.16371516096E+03  0.51077952670E+02  0.14909809221E+02  0.24405514456E+03  0.17300000000E+03 0.  1.
       -6    1    1    2    0  502  0.95567105601E+00  0.29882501166E+02 -0.27823094541E+01  0.17558649842E+03  0.17300000000E+03 0. -1.
</event>
<event>
 6   0  0.4500850E-05  0.2174860E+03  0.7546771E-02  0.1140958E+00
       21   -1    0    0  504  503  0.00000000000E+00  0.00000000000E+00  0.33064927817E+03  0.33064927817E+03  0.00000000000E+00 0. -1.
       21   -1    0    0  502  504  0.00000000000E+00  0.00000000000E+00 -0.11572151936E+04  0.11572151936E+04  0.00000000000E+00 0.  1.
        6    1    1    2  501    0 -0.63619463052E+02 -0.93977530980E+02 -0.14432844146E+03  0.25226753937E+03  0.17300000000E+03 0. -1.
       -6    1    1    2    0  503  0.38518196208E+02 -0.98807340502E+01  0.28418517956E+02  0.17977177895E+03  0.17300000000E+03 0. -1.
        6    1    1    2  502    0  0.63888301332E-01  0.20242287231E+03  0.48442915488E+02  0.27064873799E+03  0.17300000000E+03 0. -1.
       -6    1    1    2    0  501  0.25037378542E+02 -0.98564607278E+02 -0.75909890743E+03  0.78517641546E+03  0.17300000000E+03 0.  1.
</event>
<event>
 6   0  0.4500850E-05  0.6093569E+03  0.7546771E-02  0.1020448E+00
       21   -1    0    0  504  503  0.00000000000E+00  0.00000000000E+00  0.13598981412E+04  0.13598981412E+04  0.00000000000E+00 0. -1.
       21   -1    0    0  501  504  0.00000000000E+00  0.00000000000E+00 -0.97385295358E+03  0.97385295358E+03  0.00000000000E+00 0. -1.
        6    1    1    2  501    0 -0.21072539651E+03 -0.12671166294E+03 -0.41657932263E+03  0.51373959387E+03  0.17300000000E+03 0.  1.
       -6    1    1    2    0  503 -0.24393213499E+02  0.14251393397E+03  0.86595406384E+03  0.89482439111E+03  0.17300000000E+03 0. -1.
        6    1    1    2  502    0  0.44340670910E+03  0.13122609028E+03  0.18726164374E+03  0.52803950577E+03  0.17300000000E+03 0.  1.
       -6    1    1    2    0  502 -0.20828809909E+03 -0.14702836130E+03 -0.25059119730E+03  0.39714760406E+03  0.17300000000E+03 0. -1.
</event>
<event>
 6   0  0.4500850E-05  0.4875272E+03  0.7546771E-02  0.1028689E+00
       21   -1    0    0  502  503  0.00000000000E+00  0.00000000000E+00  0.18121611161E+04  0.18121611161E+04  0.00000000000E+00 0. -1.
       21   -1    0    0  503  504  0.00000000000E+00  0.00000000000E+00 -0.73143747470E+03  0.73143747470E+03  0.00000000000E+00 0. -1.
        6    1    1    2  501    0 -0.39231530434E+01 -0.15725841416E+03  0.91341480015E+02  0.25103359521E+03  0.17300000000E+03 0.  1.
       -6    1    1    2    0  504  0.60793643089E+03  0.56107394291E+03 -0.67677225069E+02  0.84787963781E+03  0.17300000000E+03 0. -1.
        6    1    1    2  502    0 -0.33188368115E+03 -0.49100491202E+03  0.49700124745E+03  0.79257292497E+03  0.17300000000E+03 0.  1.
       -6    1    1    2    0  501 -0.27212959670E+03  0.87189383270E+02  0.56005813905E+03  0.65211243285E+03  0.17300000000E+03 0. -1.
</event>
<event>
 6   0  0.4500850E-05  0.2131236E+03  0.7546771E-02  0.1142989E+00
       21   -1    0    0  502  503  0.00000000000E+00  0.00000000000E+00  0.26765880057E+03  0.26765880057E+03  0.00000000000E+00 0. -1.
       21   -1    0    0  501  504  0.00000000000E+00  0.00000000000E+00 -0.19247376281E+04  0.19247376281E+04  0.00000000000E+00 0. -1.
        6    1    1    2  501    0 -0.87049395135E+02  0.16548692943E+02 -0.11451419648E+04  0.11615208030E+04  0.17300000000E+03 0. -1.
       -6    1    1    2    0  504 -0.33916707063E+02  0.28179734097E+02  0.13095191096E+03  0.22140876996E+03  0.17300000000E+03 0. -1.
        6    1    1    2  502    0  0.87766670314E+02  0.13124535589E+03 -0.38751079949E+03  0.45279349772E+03  0.17300000000E+03 0. -1.
       -6    1    1    2    0  503  0.33199431884E+02 -0.17597378293E+03 -0.25537797427E+03  0.35667335799E+03  0.17300000000E+03 0. -1.
</event>
<event>
 6   0  0.4500850E-05  0.3259203E+03  0.7546771E-02  0.1083644E+00
       21   -1    0    0  501  503  0.00000000000E+00  0.00000000000E+00  0.30732301815E+03  0.30732301815E+03  0.00000000000E+00 0.  1.
       21   -1    0    0  502  504  0.00000000000E+00  0.00000000000E+00 -0.25125062937E+04  0.25125062937E+04  0.00000000000E+00 0.  1.
        6    1    1    2  501    0  0.13029073463E+03  0.17081879819E+03 -0.44763505843E+03  0.52579547628E+03  0.17300000000E+03 0.  1.
       -6    1    1    2    0  504 -0.81137787861E+02 -0.31258573612E+03 -0.13762677317E+03  0.39136084594E+03  0.17300000000E+03 0.  1.
        6    1    1    2  502    0 -0.71060865132E+02 -0.23123603111E+03 -0.14089929310E+04  0.14400381343E+04  0.17300000000E+03 0.  1.
       -6    1    1    2    0  503  0.21907918360E+02  0.37300296904E+03 -0.21092851299E+03  0.46263485536E+03  0.17300000000E+03 0.  1.
</event>
<event>
 6   0  0.4500850E-05  0.2647764E+03  0.7546771E-02  0.1116580E+00
       21   -1    0    0  502  503  0.00000000000E+00  0.00000000000E+00  0.60179408615E+03  0.60179408615E+03  0.00000000000E+00 0. -1.
       21   -1    0    0  501  504  0.00000000000E+00  0.00000000000E+00 -0.18754182846E+04  0.18754182846E+04  0.00000000000E+00 0.  1.
        6    1    1    2  501    0  0.20491848990E+03 -0.89875459604E+00  0.48796208884E+03  0.55680193553E+03  0.17300000000E+03 0. -1.
       -6    1    1    2    0  504 -0.85242849851E+02 -0.18427584001E+02 -0.10984718703E+04  0.11154260931E+04  0.17300000000E+03 0. -1.
        6    1    1    2  502    0  0.25808092147E+02  0.11623115264E+03 -0.28811595704E+03  0.35653266774E+03  0.17300000000E+03 0.  1.
       -6    1    1    2    0  503 -0.14548373220E+03 -0.96904814040E+02 -0.37499845996E+03  0.44845167442E+03  0.17300000000E+03 0.  1.
</event>
<event>
 6   0  0.4500850E-05  0.3605275E+03  0.7546771E-02  0.1074589E+00
       21   -1    0    0  502  503  0.00000000000E+00  0.00000000000E+00  0.22828590389E+04  0.22828590389E+04  0.00000000000E+00 0.  1.
       21   -1    0    0  501  504  0.00000000000E+00  0.00000000000E+00 -0.72784788637E+03  0.72784788637E+03  0.00000000000E+00 0.  1.
        6    1    1    2  501    0  0.60604634898E+03  0.41344963307E+01  0.38845471975E+03  0.74036162817E+03  0.17300000000E+03 0.  1.
       -6    1    1    2    0  504 -0.28832782360E+02 -0.42580346714E+02 -0.20933659488E+03  0.27639686181E+03  0.17300000000E+03 0.  1.
        6    1    1    2  502    0 -0.35566992649E+03  0.59084493164E+02 -0.16124448548E+03  0.43118541028E+03  0.17300000000E+03 0.  1.
       -6    1    1    2    0  503 -0.22154364014E+03 -0.20638642781E+02  0.15371375131E+04  0.15627630250E+04  0.17300000000E+03 0.  1.
</event>
<event>
 6   0  0.4500850E-05  0.2870348E+03  0.7546771E-02  0.1092333E+00
       21   -1    0    0  504  503  0.00000000000E+00  0.00000000000E+00  0.65133203701E+03  0.65133203701E+03  0.00000000000E+00 0. -1.
       21   -1    0    0  502  504  0.00000000000E+00  0.00000000000E+00 -0.14469435326E+04  0.14469435326E+04  0.00000000000E+00 0. -1.
        6    1    1    2  501    0 -0.32737412282E+03 -0.21023887726E+03  0.24979438248E+03  0.49366024279E+03  0.17300000000E+03 0. -1.
       -6    1    1    2    0  503  0.67169216669E+02  0.14924882085E+03  0.87616006833E+02  0.25375673163E+03  0.17300000000E+03 0. -1.
        6    1    1    2  502    0 -0.73836375993E+02 -0.13020387484E+03 -0.73870809663E+03  0.77331979897E+03  0.17300000000E+03 0. -1.
       -6    1    1    2    0  501  0.33404128214E+03  0.19119393124E+03 -0.39431378823E+03  0.57753879619E+03  0.17300000000E+03 0. -1.
</event>
<event>
 6   0  0.4500850E-05  0.2344853E+03  0.7546771E-02  0.1129864E+00
       21   -1    0    0  502  503  0.00000000000E+00  0.00000000000E+00  0.13325733494E+04  0.13325733494E+04  0.00000000000E+00 0. -1.
       21   -1    0    0  501  504  0.00000000000E+00  0.00000000000E+00 -0.31464326972E+03  0.31464326972E+03  0.00000000000E+00 0.  1.
        6    1    1    2  501    0  0.95009270519E+01 -0.28545874326E+03  0.69901765448E+03  0.77468163977E+03  0.17300000000E+03 0. -1.
       -6    1    1    2    0  503 -0.48659649864E+02  0.97625865513E+02  0.38667541829E+03  0.43743050905E+03  0.17300000000E+03 0.  1.
        6    1    1    2  502    0  0.22053631411E+02  0.18141934649E+01 -0.40435970983E+02  0.17903553196E+03  0.17300000000E+03 0. -1.
       -6    1    1    2    0  504  0.17105091401E+02  0.18601868428E+03 -0.27327022089E+02  0.25606893835E+03  0.17300000000E+03 0.  1.
</event>
<event>
 6   0  0.4500850E-05  0.6288357E+03  0.7546771E-02  0.9864089E-01
       21   -1    0    0  502  503  0.00000000000E+00  0.00000000000E+00  0.21022501255E+03  0.21022501255E+03  0.00000000000E+00 0. -1.
       21   -1    0    0  501  504  0.00000000000E+00  0.00000000000E+00 -0.20974889085E+04  0.20974889085E+04  0.00000000000E+00 0. -1.
        6    1    1    2  501    0 -0.78714854173E+02 -0.24399931461E+02 -0.27532110936E+03  0.33544313703E+03  0.17300000000E+03 0. -1.
       -6    1    1    2    0  503  0.35828241312E+03 -0.98236651383E+01 -0.93866787270E+03  0.10195534156E+04  0.17300000000E+03 0. -1.
        6    1    1    2  502    0  0.94590921162E+02  0.33242459978E+01 -0.43002183393E+03  0.47308167438E+03  0.17300000000E+03 0. -1.
       -6    1    1    2    0  504 -0.37415848011E+03  0.30899350601E+02 -0.24325307993E+03  0.47963569405E+03  0.17300000000E+03 0. -1.
</event>
<event>
 6   0  0.4500850E-05  0.2368591E+03  0.7546771E-02  0.1134503E+00
       21   -1    0    0  502  503  0.00000000000E+00  0.00000000000E+00  0.66282091754E+03  0.66282091754E+03  0.00000000000E+00 0.  1.
       21   -1    0    0  501  504  0.00000000000E+00  0.00000000000E+00 -0.34758710597E+03  0.34758710597E+03  0.00000000000E+00 0.  1.
        6    1    1    2  501    0  0.80280049032E+02 -0.18990817883E+02  0.17659985521E+02  0.19247444642E+03  0.17300000000E+03 0.  1.
       -6    1    1    2    0  504  0.13407941039E+02  0.16751301152E+03  0.75021845755E+02  0.25258198521E+03  0.17300000000E+03 0.  1.
        6    1    1    2  502    0 -0.99706706853E+02 -0.13488272077E+03 -0.46230472939E+02  0.24535898676E+03  0.17300000000E+03 0. -1.
       -6    1    1    2    0  503  0.60187167809E+01 -0.13639472872E+02  0.26878245323E+03  0.31999260513E+03  0.17300000000E+03 0.  1.
</event>
<event>
 6   0  0.4500850E-05  0.2558660E+03  0.7546771E-02  0.1114218E+00
       21   -1    0    0  504  503  0.00000000000E+00  0.00000000000E+00  0.16804756857E+04  0.16804756857E+04  0.00000000000E+00 0.  1.
       21   -1    0    0  501  504  0.00000000000E+00  0.00000000000E+00 -0.13897434954E+04  0.13897434954E+04  0.00000000000E+00 0. -1.
        6    1    1    2  501    0 -0.98118028892E+02  0.81174272921E+02 -0.37098301884E+03  0.42868847715E+03  0.17300000000E+03 0. -1.
       -6    1    1    2    0  503  0.12035942299E+03 -0.12528646314E+03  0.29553680901E+03  0.38399751826E+03  0.17300000000E+03 0. -1.
        6    1    1    2  502    0 -0.23843539216E+03 -0.49309333348E+02  0.12715551167E+04  0.13061639489E+04  0.17300000000E+03 0.  1.
       -6    1    1    2    0  502  0.21619399807E+03  0.93421523566E+02 -0.90537671658E+03  0.95136923683E+03  0.17300000000E+03 0. -1.
</event>
<event>
 6   0  0.4500850E-05  0.5220357E+03  0.7546771E-02  0.1026735E+00
       21   -1    0    0  504  503  0.00000000000E+00  0.00000000000E+00  0.49476760691E+03  0.49476760691E+03  0.00000000000E+00 0.  1.
       21   -1    0    0  501  504  0.00000000000E+00  0.00000000000E+00 -0.15771411603E+04  0.15771411603E+04  0.00000000000E+00 0. -1.
        6    1    1    2  501    0  0.24328542702E+03  0.16011840978E+03 -0.21190303399E+03  0.39957177073E+03  0.17300000000E+03 0. -1.
       -6    1    1    2    0  502 -0.39144071788E+03  0.15931594942E+03 -0.39941244738E+03  0.60668501752E+03  0.17300000000E+03 0. -1.
        6    1    1    2  502    0  0.32070917403E+03 -0.48801214587E+03 -0.14771149741E+03  0.62670400931E+03  0.17300000000E+03 0.  1.
       -6    1    1    2    0  503 -0.17255388316E+03  0.16857778667E+03 -0.32334657464E+03  0.43894796968E+03  0.17300000000E+03 0.  1.
</event>
<event>
 6   0  0.4500850E-05  0.3804415E+03  0.7546771E-02  0.1071379E+00
       21   -1    0    0  501  503  0.00000000000E+00  0.00000000000E+00  0.91226077689E+03  0.91226077689E+03  0.00000000000E+00 0.  1.
       21   -1    0    0  502  504  0.00000000000E+00  0.00000000000E+00 -0.30609495477E+03  0.30609495477E+03  0.00000000000E+00 0.  1.
        6    1    1    2  501    0  0.16361058956E+03 -0.63116260480E+02  0.10316644535E+03  0.26706628915E+03  0.17300000000E+03 0.  1.
       -6    1    1    2    0  503  0.45167811913E+02 -0.11763490449E+03  0.17768911020E+03  0.27817354632E+03  0.17300000000E+03 0.  1.
        6    1    1    2  502    0 -0.36013656561E+02 -0.11043259667E+02 -0.51795734875E+02  0.18447421282E+03  0.17300000000E+03 0. -1.
       -6    1    1    2    0  504 -0.17276474491E+03  0.19179442464E+03  0.37710600145E+03  0.48864168338E+03  0.17300000000E+03 0.  1.
</event>
<event>
 6   0  0.4500850E-05  0.2473849E+03  0.7546771E-02  0.1118049E+00
       21   -1    0    0  501  503  0.00000000000E+00  0.00000000000E+00  0.16748142605E+04  0.16748142605E+04  0.00000000000E+00 0.  1.
       21   -1    0    0  502  504  0.00000000000E+00  0.00000000000E+00 -0.39744016550E+03  0.39744016550E+03  0.00000000000E+00 0.  1.
        6    1    1    2  501    0  0.19265564223E+02  0.22517229179E+03 -0.75704795993E+02  0.29450626325E+03  0.17300000000E+03 0.  1.
       -6    1    1    2    0  503 -0.13436754877E+03 -0.23694058334E+03  0.29832484896E+03  0.43945670288E+03  0.17300000000E+03 0.  1.
        6    1    1    2  502    0  0.86242146375E+02 -0.38873298398E+02  0.11254007691E+04  0.11425430986E+04  0.17300000000E+03 0.  1.
       -6    1    1    2    0  504  0.28859838175E+02  0.50641589944E+02 -0.70646727051E+02  0.19574836126E+03  0.17300000000E+03 0. -1.
</event>
<event>
 6   0  0.4500850E-05  0.2647030E+03  0.7546771E-02  0.1105991E+00
       21   -1    0    0  504  503  0.00000000000E+00  0.00000000000E+00  0.35230299523E+04  0.35230299523E+04  0.00000000000E+00 0. -1.
       21   -1    0    0  501  504  0.00000000000E+00  0.00000000000E+00 -0.42177344568E+03  0.42177344568E+03  0.00000000000E+00 0. -1.
        6    1    1    2  501    0 -0.13600404276E+02 -0.13237076700E+03  0.25087928948E+03  0.33253031266E+03  0.17300000000E+03 0. -1.
       -6    1    1    2    0  503  0.16923880386E+03 -0.31771451257E+03  0.25810641894E+04  0.26117820801E+04  0.17300000000E+03 0. -1.
        6    1    1    2  502    0 -0.17087749746E+02  0.10586285404E+03  0.49342531856E+03  0.53375694848E+03  0.17300000000E+03 0.  1.
       -6    1    1    2    0  502 -0.13855064984E+03  0.34422242554E+03 -0.22411229081E+03  0.46673405672E+03  0.17300000000E+03 0. -1.
</event>
<event>
 6   0  0.4500850E-05  0.2414667E+03  0.7546771E-02  0.1129931E+00
       21   -1    0    0  502  503  0.00000000000E+00  0.00000000000E+00  0.21852347955E+04  0.21852347955E+04  0.00000000000E+00 0.  1.
       21   -1    0    0  501  504  0.00000000000E+00  0.00000000000E+00 -0.13573443032E+03  0.13573443032E+03  0.00000000000E+00 0.  1.
        6    1    1    2  501    0  0.97443989074E+01 -0.20382427756E+02  0.75779577292E+03  0.77762062095E+03  0.17300000000E+03 0.  1.
       -6    1    1    2    0  504  0.11851954832E+03  0.10166161126E+03  0.40478933493E+03  0.46708176181E+03  0.17300000000E+03 0.  1.
        6    1    1    2  502    0  0.14011925513E+03 -0.35979387418E+02  0.61289475464E+03  0.65306730299E+03  0.17300000000E+03 0.  1.
       -6    1    1    2    0  503 -0.26838320236E+03 -0.45299796082E+02  0.27402050274E+03  0.42319954012E+03  0.17300000000E+03 0.  1.
</event>
<event>
 6   0  0.4500850E-05  0.4461509E+03  0.7546771E-02  0.1061190E+00
       21   -1    0    0  502  503  0.00000000000E+00  0.00000000000E+00  0.23413973135E+04  0.23413973135E+04  0.00000000000E+00 0. -1.
       21   -1    0    0  503  504  0.00000000000E+00  0.00000000000E+00 -0.13261873879E+03  0.13261873879E+03  0.00000000000E+00 0. -1.
        6    1    1    2  501    0 -0.32760139812E+00 -0.17682067325E+03  0.20330634007E+03  0.32020013386E+03  0.17300000000E+03 0. -1.
       -6    1    1    2    0  504 -0.24596598095E+02 -0.90151754225E+02  0.21487199093E+03  0.29125813965E+03  0.17300000000E+03 0. -1.
        6    1    1    2  502    0  0.56131713230E+02  0.26363162830E+03  0.91383323131E+03  0.96833495203E+03  0.17300000000E+03 0.  1.
       -6    1    1    2    0  501 -0.31207513737E+02  0.33407991762E+01  0.87676701242E+03  0.89422282677E+03  0.17300000000E+03 0. -1.
</event>
<event>
 6   0  0.4500850E-05  0.2078430E+03  0.7546771E-02  0.1146317E+00
       21   -1    0    0  502  503  0.00000000000E+00  0.00000000000E+00  0.60778736559E+03  0.60778736559E+03  0.00000000000E+00 0.  1.
       21   -1    0    0  503  504  0.00000000000E+00  0.00000000000E+00 -0.57568141797E+03  0.57568141797E+03  0.00000000000E+00 0.  1.
        6    1    1    2  501    0 -0.50288781039E+02  0.64199602445E+02 -0.25392533870E+03  0.31789562452E+03  0.17300000000E+03 0.  1.
       -6    1    1    2    0  501  0.85922826395E+02 -0.18025899396E+03  0.24748185740E+02  0.26536297725E+03  0.17300000000E+03 0.  1.
        6    1    1    2  502    0 -0.43746689126E+02  0.27341997063E+02  0.34421599833E+03  0.38868369032E+03  0.17300000000E+03 0.  1.
       -6    1    1    2    0  504  0.81126437694E+01  0.88717394452E+02 -0.82932897750E+02  0.21152649148E+03  0.17300000000E+03 0. -1.
</event>
<event>
 6   0  0.4500850E-05  0.2632204E+03  0.7546771E-02  0.1118001E+00
       21   -1    0    0  501  503  0.00000000000E+00  0.00000000000E+00  0.64692656786E+03  0.64692656786E+03  0.00000000000E+00 0. -1.
       21   -1    0    0  502  504  0.00000000000E+00  0.00000000000E+00 -0.45333739185E+03  0.45333739185E+03  0.00000000000E+00 0. -1.
        6    1    1    2  501    0  0.83092462497E+02 -0.21314856833E+03  0.38115854173E+02  0.28934147274E+03  0.17300000000E+03 0. -1.
       -6    1    1    2    0  504 -0.51929866158E+02 -0.12158078041E+02 -0.97695764814E+02  0.20571337420E+03  0.17300000000E+03 0. -1.
        6    1    1    2  502    0 -0.16636834030E+03  0.10047743913E+02  0.85537273191E+02  0.25500001356E+03  0.17300000000E+03 0. -1.
       -6    1    1    2    0  503  0.13520574396E+03  0.21525890246E+03  0.16763181346E+03  0.35020909921E+03  0.17300000000E+03 0. -1.
</event>
<event>
 6   0  0.4500850E-05  0.3690029E+03  0.7546771E-02  0.1060770E+00
       21   -1    0    0  502  503  0.00000000000E+00  0.00000000000E+00  0.10956485354E+04  0.10956485354E+04  0.00000000000E+00 0.  1.
       21   -1    0    0  501  504  0.00000000000E+00  0.00000000000E+00 -0.72336718329E+03  0.72336718329E+03  0.00000000000E+00 0.  1.
        6    1    1    2  501    0  0.48916780943E+03  0.17564984876E+03 -0.13428397369E+03  0.56400283753E+03  0.17300000000E+03 0.  1.
       -6    1    1    2    0  503  0.10257889743E+03 -0.11486804717E+03 -0.11526787820E+03  0.25871370703E+03  0.17300000000E+03 0.  1.
        6    1    1    2  502    0 -0.19229319207E+03 -0.90484839521E+02  0.45100641530E+03  0.52773095848E+03  0.17300000000E+03 0. -1.
       -6    1    1    2    0  504 -0.39945351480E+03  0.29703037938E+02  0.17082678865E+03  0.46856821560E+03  0.17300000000E+03 0.  1.
</event>
<event>
 6   0  0.4500850E-05  0.5831641E+03  0.7546771E-02  0.1032935E+00
       21   -1    0    0  501  503  0.00000000000E+00  0.00000000000E+00  0.11451699254E+04  0.11451699254E+04  0.00000000000E+00 0.  1.
       21   -1    0    0  502  504  0.00000000000E+00  0.00000000000E+00 -0.66388184348E+03  0.66388184348E+03  0.00000000000E+00 0. -1.
        6    1    1    2  501    0  0.24930258054E+02  0.28829672139E+02  0.68302332743E+03  0.70562208977E+03  0.17300000000E+03 0.  1.
       -6    1    1    2    0  504 -0.12755746854E+03  0.42925088340E+03 -0.49336615938E+01  0.48008391943E+03  0.17300000000E+03 0.  1.
        6    1    1    2  502    0  0.88402801876E+02 -0.21478060764E+03 -0.12809612656E+03  0.31667551601E+03  0.17300000000E+03 0. -1.
       -6    1    1    2    0  503  0.14224408606E+02 -0.24329994790E+03 -0.68705457411E+02  0.30667024362E+03  0.17300000000E+03 0. -1.
</event>
<event>
 6   0  0.4500850E-05  0.6592878E+03  0.7546771E-02  0.1019366E+00
       21   -1    0    0  502  503  0.00000000000E+00  0.00000000000E+00  0.13322112101E+04  0.13322112101E+04  0.00000000000E+00 0.  1.
       21   -1    0    0  503  504  0.00000000000E+00  0.00000000000E+00 -0.51231322499E+03  0.51231322499E+03  0.00000000000E+00 0. -1.
        6    1    1    2  501    0 -0.47084267494E+03  0.25294646802E+03 -0.50754349529E+02  0.56407423644E+03  0.17300000000E+03 0. -1.
       -6    1    1    2    0  501  0.13831349769E+03 -0.18649521788E+03  0.27379225338E+03  0.39850004761E+03  0.17300000000E+03 0.  1.
        6    1    1    2  502    0  0.28997110180E+03 -0.20650548494E+02  0.61000782593E+03  0.69753009450E+03  0.17300000000E+03 0.  1.
       -6    1    1    2    0  504  0.42558075443E+02 -0.45800701639E+02 -0.13147744691E+02  0.18442005652E+03  0.17300000000E+03 0.  1.
</event>
<event>
 6   0  0.4500850E-05  0.2014952E+03  0.7546771E-02  0.1153073E+00
       21   -1    0    0  501  503  0.00000000000E+00  0.00000000000E+00  0.17945891206E+04  0.17945891206E+04  0.00000000000E+00 0. -1.
       21   -1    0    0  503  504  0.00000000000E+00  0.00000000000E+00 -0.27419160819E+03  0.27419160819E+03  0.00000000000E+00 0. -1.
        6    1    1    2  501    0 -0.90608464273E+02  0.24920358608E+02  0.11452396629E+04  0.11620386412E+04  0.17300000000E+03 0. -1.
       -6    1    1    2    0  504  0.22945901430E+02  0.47108963004E+02  0.15546328735E+03  0.23841896422E+03  0.17300000000E+03 0.  1.
        6    1    1    2  502    0 -0.77301839879E+02 -0.80159541437E+02 -0.13625242133E+03  0.24676881661E+03  0.17300000000E+03 0. -1.
       -6    1    1    2    0  502  0.14496440272E+03  0.81302198260E+01  0.35594698353E+03  0.42155430684E+03  0.17300000000E+03 0.  1.
</event>
<event>
 6   0  0.4500850E-05  0.2475059E+03  0.7546771E-02  0.1122085E+00
       21   -1    0    0  501  503  0.00000000000E+00  0.00000000000E+00  0.71366346057E+03  0.71366346057E+03  0.00000000000E+00 0.  1.
       21   -1    0    0  503  504  0.00000000000E+00  0.00000000000E+00 -0.11199034637E+04  0.11199034637E+04  0.00000000000E+00 0.  1.
        6    1    1    2  501    0  0.53645912241E+02  0.11088582625E+03  0.27979807929E+03  0.35126843800E+03  0.17300000000E+03 0.  1.
       -6    1    1    2    0  502 -0.97391186155E+02 -0.29493504549E+03  0.44280930714E+02  0.35827576672E+03  0.17300000000E+03 0.  1.
        6    1    1    2  502    0  0.56658279938E+02  0.13668437787E+03  0.11830788206E+03  0.25655123230E+03  0.17300000000E+03 0.  1.
       -6    1    1    2    0  504 -0.12913006024E+02  0.47364841366E+02 -0.84862689515E+03  0.86747148720E+03  0.17300000000E+03 0.  1.
</event>
<event>
 6   0  0.4500850E-05  0.2662316E+03  0.7546771E-02  0.1108525E+00
       21   -1    0    0  502  503  0.00000000000E+00  0.00000000000E+00  0.17374442257E+04  0.17374442257E+04  0.00000000000E+00 0. -1.
       21   -1    0    0  501  504  0.00000000000E+00  0.00000000000E+00 -0.11351312213E+04  0.11351312213E+04  0.00000000000E+00 0.  1.
        6    1    1    2  501    0  0.28529783788E+03 -0.19948901489E+03 -0.77441225070E+03  0.86650681324E+03  0.17300000000E+03 0.  1.
       -6    1    1    2    0  503 -0.56128959725E+02  0.48816204444E+02 -0.10553417570E+03  0.21587020215E+03  0.17300000000E+03 0.  1.
        6    1    1    2  502    0 -0.21363179658E+03  0.33235036643E+02  0.15463537900E+04  0.15709494441E+04  0.17300000000E+03 0. -1.
       -6    1    1    2    0  504 -0.15537081574E+02  0.11743777380E+03 -0.64094359239E+02  0.21924898747E+03  0.17300000000E+03 0.  1.
</event>
<event>
 6   0  0.4500850E-05  0.2759770E+03  0.7546771E-02  0.1103313E+00
       21   -1    0    0  501  503  0.00000000000E+00  0.00000000000E+00  0.47683533013E+03  0.47683533013E+03  0.00000000000E+00 0. -1.
       21   -1    0    0  503  504  0.00000000000E+00  0.00000000000E+00 -0.94301979707E+03  0.94301979707E+03  0.00000000000E+00 0. -1.
        6    1    1    2  501    0  0.17899970849E+02  0.20149830507E+03 -0.41494579165E+01  0.26621080726E+03  0.17300000000E+03 0. -1.
       -6    1    1    2    0  502 -0.24373943205E+03 -0.11719733905E+03 -0.22072938183E+03  0.38960824815E+03  0.17300000000E+03 0. -1.
        6    1    1    2  502    0  0.15071809237E+03 -0.22296107870E+03  0.11306860702E+03  0.33932446990E+03  0.17300000000E+03 0. -1.
       -6    1    1    2    0  504  0.75121368833E+02  0.13866011269E+03 -0.35437423421E+03  0.42471160189E+03  0.17300000000E+03 0.  1.
</event>
<event>
 6   0  0.4500850E-05  0.3892206E+03  0.7546771E-02  0.1075406E+00
       21   -1    0    0  504  503  0.00000000000E+00  0.00000000000E+00  0.56899960066E+03  0.56899960066E+03  0.00000000000E+00 0. -1.
       21   -1    0    0  501  504  0.00000000000E+00  0.00000000000E+00 -0.77895198607E+03  0.77895198607E+03  0.00000000000E+00 0. -1.
        6    1    1    2  501    0  0.19963410285E+02  0.41454923574E+02 -0.53480785127E+02  0.18683212469E+03  0.17300000000E+03 0.  1.
       -6    1    1    2    0  502 -0.61545862588E+02 -0.12370525977E+03 -0.24377367957E+03  0.32931063048E+03  0.17300000000E+03 0.  1.
        6    1    1    2  502    0  0.37242301703E+03  0.10507775858E+03 -0.63326985891E+02  0.42857851802E+03  0.17300000000E+03 0. -1.
       -6    1    1    2    0  503 -0.33084056473E+03 -0.22827422388E+02  0.15062906518E+03  0.40323031354E+03  0.17300000000E+03 0. -1.
</event>
<event>
 6   0  0.4500850E-05  0.6461123E+03  0.7546771E-02  0.9962333E-01
       21   -1    0    0  501  503  0.00000000000E+00  0.00000000000E+00  0.66482820488E+03  0.66482820488E+03  0.00000000000E+00 0. -1.
       21   -1    0    0  502  504  0.00000000000E+00  0.00000000000E+00 -0.11568804457E+04  0.11568804457E+04  0.00000000000E+00 0.  1.
        6    1    1    2  501    0  0.14902360848E+03 -0.46610164009E+03 -0.24928941186E+03  0.57578901140E+03  0.17300000000E+03 0.  1.
       -6    1    1    2    0  503  0.61516795901E+02  0.39292967478E+03  0.82338665330E+02  0.44145973917E+03  0.17300000000E+03 0.  1.
        6    1    1    2  502    0  0.14834771126E+03  0.11491509298E+03  0.44891515097E+02  0.25914623315E+03  0.17300000000E+03 0. -1.
       -6    1    1    2    0  504 -0.35888811563E+03 -0.41743127669E+02 -0.36999300936E+03  0.54531366683E+03  0.17300000000E+03 0. -1.
</event>
<event>
 6   0  0.4500850E-05  0.2540898E+03  0.7546771E-02  0.1125464E+00
       21   -1    0    0  502  503  0.00000000000E+00  0.00000000000E+00  0.10227401907E+04  0.10227401907E+04  0.00000000000E+00 0. -1.
       21   -1    0    0  501  504  0.00000000000E+00  0.00000000000E+00 -0.34751263370E+03  0.34751263370E+03  0.00000000000E+00 0.  1.
        6    1    1    2  501    0  0.73802285848E+02 -0.62100814885E+02  0.24666292052E+03  0.31634614738E+03  0.17300000000E+03 0. -1.
       -6    1    1    2    0  503  0.29504616246E+02  0.65682555345E+01  0.42551917287E+03  0.46033599777E+03  0.17300000000E+03 0.  1.
        6    1    1    2  502    0  0.10541873739E+03  0.79035812314E+02  0.16849917545E+03  0.27510133033E+03  0.17300000000E+03 0. -1.
       -6    1    1    2    0  504 -0.20872563949E+03 -0.23503252963E+02 -0.16545371180E+03  0.31846934896E+03  0.17300000000E+03 0.  1.
</event>
<event>
 6   0  0.4500850E-05  0.2591955E+03  0.7546771E-02  0.1123250E+00
       21   -1    0    0  502  503  0.00000000000E+00  0.00000000000E+00  0.19953827592E+03  0.19953827592E+03  0.00000000000E+00 0. -1.
       21   -1    0    0  501  504  0.00000000000E+00  0.00000000000E+00 -0.20355429448E+04  0.20355429448E+04  0.00000000000E+00 0. -1.
        6    1    1    2  501    0 -0.22665286949E+02 -0.10422940468E+02 -0.25382298068E+03  0.30818413074E+03  0.17300000000E+03 0. -1.
       -6    1    1    2    0  504  0.63854318335E+02 -0.57734137009E+02 -0.81353109521E+03  0.83616532301E+03  0.17300000000E+03 0. -1.
        6    1    1    2  502    0 -0.61011545888E+02 -0.13208927004E+03 -0.79267574451E+03  0.82427775654E+03  0.17300000000E+03 0. -1.
       -6    1    1    2    0  503  0.19822514502E+02  0.20024634752E+03  0.24025151488E+02  0.26645401044E+03  0.17300000000E+03 0. -1.
</event>
<event>
 6   0  0.4500850E-05  0.2615572E+03  0.7546771E-02  0.1112185E+00
       21   -1    0    0  501  503  0.00000000000E+00  0.00000000000E+00  0.51926806655E+03  0.51926806655E+03  0.00000000000E+00 0. -1.
       21   -1    0    0  502  504  0.00000000000E+00  0.00000000000E+00 -0.86686406584E+03  0.86686406584E+03  0.00000000000E+00 0.  1.
        6    1    1    2  501    0  0.18848324675E+01  0.15619755753E+03  0.21580082944E+03  0.31764796168E+03  0.17300000000E+03 0. -1.
       -6    1    1    2    0  503 -0.22942749803E+03 -0.28449531600E+03 -0.38298693304E+03  0.55694034919E+03  0.17300000000E+03 0.  1.
        6    1    1    2  502    0  0.10934565266E+03  0.11673089364E+03 -0.18821620278E+03  0.30155747756E+03  0.17300000000E+03 0.  1.
       -6    1    1    2    0  504  0.11819701290E+03  0.11566864834E+02  0.78063070847E+01  0.20998634396E+03  0.17300000000E+03 0.  1.
</event>
<event>
 6   0  0.4500850E-05  0.3033275E+03  0.7546771E-02  0.1089224E+00
       21   -1    0    0  501  503  0.00000000000E+00  0.00000000000E+00  0.15526183602E+04  0.15526183602E+04  0.00000000000E+00 0.  1.
       21   -1    0    0  502  504  0.00000000000E+00  0.00000000000E+00 -0.30818867981E+03  0.30818867981E+03  0.00000000000E+00 0.  1.
        6    1    1    2  501    0  0.20981669289E+03  0.25643576624E+03  0.38478255761E+03  0.53644101583E+03  0.17300000000E+03 0. -1.
       -6    1    1    2    0  503 -0.75540841815E+02 -0.12107479861E+03  0.48599045023E+03  0.53523942620E+03  0.17300000000E+03 0.  1.
        6    1    1    2  502    0 -0.33191663387E+03 -0.98119225173E+02  0.35176358026E+03  0.52293656459E+03  0.17300000000E+03 0. -1.
       -6    1    1    2    0  504  0.19764078279E+03 -0.37241742457E+02  0.21893092311E+02  0.26619003342E+03  0.17300000000E+03 0.  1.
</event>
<event>
 6   0  0.4500850E-05  0.2436467E+03  0.7546771E-02  0.1123804E+00
       21   -1    0    0  501  503  0.00000000000E+00  0.00000000000E+00  0.24332794902E+04  0.24332794902E+04  0.00000000000E+00 0. -1.
       21   -1    0    0  502  504  0.00000000000E+00  0.00000000000E+00 -0.24733692210E+03  0.24733692210E+03  0.00000000000E+00 0.  1.
        6    1    1    2  501    0  0.86519789544E+02 -0.20390393292E+03  0.12482922694E+04  0.12795409636E+04  0.17300000000E+03 0.  1.
       -6    1    1    2    0  504  0.81274170195E+02  0.10950091145E+03  0.68544156524E+03  0.71996880468E+03  0.17300000000E+03 0.  1.
        6    1    1    2  502    0 -0.13093161909E+03  0.12523604063E+03 -0.11248678490E+03  0.27460777761E+03  0.17300000000E+03 0.  1.
       -6    1    1    2    0  503 -0.36862340651E+02 -0.30833019161E+02  0.36469551835E+03  0.40649886634E+03  0.17300000000E+03 0. -1.
</event>
<event>
 6   0  0.4500850E-05  0.2408590E+03  0.7546771E-02  0.1124395E+00
       21   -1    0    0  504  503  0.00000000000E+00  0.00000000000E+00  0.10336937477E+04  0.10336937477E+04  0.00000000000E+00 0. -1.
       21   -1    0    0  502  504  0.00000000000E+00  0.00000000000E+00 -0.11681849250E+04  0.11681849250E+04  0.00000000000E+00 0. -1.
        6    1    1    2  501    0  0.56398129329E+02  0.24577653245E+02  0.19874932857E+03  0.27058289975E+03  0.17300000000E+03 0.  1.
       -6    1    1    2    0  503 -0.11762697553E+03  0.18218887977E+03  0.70970866713E+03  0.76200018733E+03  0.17300000000E+03 0. -1.
        6    1    1    2  502    0  0.17977197764E+03 -0.19526205656E+03 -0.67409691595E+03  0.74483614760E+03  0.17300000000E+03 0. -1.
       -6    1    1    2    0  501 -0.11854313143E+03 -0.11504476457E+02 -0.36885225701E+03  0.42445943798E+03  0.17300000000E+03 0. -1.
</event>
<event>
 6   0  0.4500850E-05  0.8159398E+03  0.7546771E-02  0.9537227E-01
        2   -1    0    0  503    0  0.00000000000E+00  0.00000000000E+00  0.83218791341E+03  0.83218791341E+03  0.00000000000E+00 0.  1.
       -2   -1    0    0    0  501  0.00000000000E+00  0.00000000000E+00 -0.85727947798E+03  0.85727947798E+03  0.00000000000E+00 0. -1.
        6    1    1    2  502    0 -0.23008510775E+03  0.25314754853E+03 -0.21941064269E+02  0.38397037442E+03  0.17300000000E+03 0.  1.
       -6    1    1    2    0  502  0.14076214921E+03  0.19892920563E+03  0.23645839170E+03  0.38108841823E+03  0.17300000000E+03 0.  1.
        6    1    1    2  503    0  0.25171586102E+02  0.15516960626E+03 -0.16337525437E+03  0.28518711260E+03  0.17300000000E+03 0.  1.
       -6    1    1    2    0  501  0.64151372439E+02 -0.60724636042E+03 -0.76233637629E+02  0.63922148614E+03  0.17300000000E+03 0. -1.
</event>
<event>
 6   0  0.4500850E-05  0.2302099E+03  0.7546771E-02  0.1133436E+00
       21   -1    0    0  502  503  0.00000000000E+00  0.00000000000E+00  0.86134272886E+03  0.86134272886E+03  0.00000000000E+00 0.  1.
       21   -1    0    0  501  504  0.00000000000E+00  0.00000000000E+00 -0.48811350191E+03  0.48811350191E+03  0.00000000000E+00 0. -1.
        6    1    1    2  501    0  0.25915403057E+03  0.15247519503E+02 -0.23699271702E+03  0.39177524977E+03  0.17300000000E+03 0. -1.
       -6    1    1    2    0  503 -0.98767995399E+02  0.68136127591E+01  0.38645635748E+03  0.43483221876E+03  0.17300000000E+03 0.  1.
        6    1    1    2  502    0 -0.12215533617E+03 -0.67954048124E+02 -0.13934893859E+02  0.22285165487E+03  0.17300000000E+03 0. -1.
       -6    1    1    2    0  504 -0.38230699000E+02  0.45892915862E+02  0.23770048035E+03  0.29999710737E+03  0.17300000000E+03 0.  1.
</event>
<event>
 6   0  0.4500850E-05  0.2209713E+03  0.7546771E-02  0.1136066E+00
       21   -1    0    0  504  503  0.00000000000E+00  0.00000000000E+00  0.12512351458E+04  0.12512351458E+04  0.00000000000E+00 0. -1.
       21   -1    0    0  501  504  0.00000000000E+00  0.00000000000E+00 -0.34409591640E+03  0.34409591640E+03  0.00000000000E+00 0. -1.
        6    1    1    2  501    0  0.54863879057E+02 -0.86033560543E+02 -0.30925318895E+02  0.20321711078E+03  0.17300000000E+03 0. -1.
       -6    1    1    2    0  502 -0.52219504053E+02 -0.65748332338E+02 -0.42207235016E+02  0.19687602824E+03  0.17300000000E+03 0.  1.
        6    1    1    2  502    0  0.31676242148E+02  0.25437570578E+03  0.15655244170E+03  0.34662378887E+03  0.17300000000E+03 0. -1.
       -6    1    1    2    0  503 -0.34320617152E+02 -0.10259381290E+03  0.82371934159E+03  0.84861413429E+03  0.17300000000E+03 0. -1.
</event>
<event>
 6   0  0.4500850E-05  0.6612999E+03  0.7546771E-02  0.9928883E-01
        2   -1    0    0  502    0  0.00000000000E+00  0.00000000000E+00  0.27238461742E+04  0.27238461742E+04  0.00000000000E+00 0. -1.
       -2   -1    0    0    0  501  0.00000000000E+00  0.00000000000E+00 -0.22645150282E+03  0.22645150282E+03  0.00000000000E+00 0.  1.
        6    1    1    2  502    0  0.17084726183E+03 -0.28135538136E+03  0.13835925154E+04  0.14326921813E+04  0.17300000000E+03 0.  1.
       -6    1    1    2    0  501 -0.85786666152E+02  0.92573786710E+01 -0.54379548149E+02  0.20082625925E+03  0.17300000000E+03 0. -1.
        6    1    1    2  503    0  0.30509167817E+02  0.70902590544E+02  0.10855404461E+03  0.21833682069E+03  0.17300000000E+03 0.  1.
       -6    1    1    2    0  503 -0.11556976350E+03  0.20119541215E+03  0.10596276595E+04  0.10984424158E+04  0.17300000000E+03 0. -1.
</event>
<event>
 6   0  0.4500850E-05  0.9374299E+03  0.7546771E-02  0.9660008E-01
       21   -1    0    0  502  503  0.00000000000E+00  0.00000000000E+00  0.73001973761E+03  0.73001973761E+03  0.00000000000E+00 0.  1.
       21   -1    0    0  501  504  0.00000000000E+00  0.00000000000E+00 -0.28515675003E+04  0.28515675003E+04  0.00000000000E+00 0.  1.
        6    1    1    2  501    0 -0.32631475683E+03  0.60745441880E+02 -0.84445112035E+03  0.92368718942E+03  0.17300000000E+03 0.  1.
       -6    1    1    2    0  504  0.52608813962E+02 -0.30349608461E+03 -0.13255803072E+03  0.37733034888E+03  0.17300000000E+03 0.  1.
        6    1    1    2  502    0  0.68641097140E+03 -0.14443943467E+03  0.25094514164E+03  0.76480405076E+03  0.17300000000E+03 0.  1.
       -6    1    1    2    0  503 -0.41270502853E+03  0.38719007740E+03 -0.13954837533E+04  0.15157656489E+04  0.17300000000E+03 0.  1.
</event>
<event>
 6   0  0.4500850E-05  0.2287827E+03  0.7546771E-02  0.1129251E+00
       21   -1    0    0  504  503  0.00000000000E+00  0.00000000000E+00  0.59475652364E+03  0.59475652364E+03  0.00000000000E+00 0.  1.
       21   -1    0    0  501  504  0.00000000000E+00  0.00000000000E+00 -0.44557744366E+03  0.44557744366E+03  0.00000000000E+00 0.  1.
        6    1    1    2  501    0  0.30072423530E+02  0.13270083201E+03 -0.96669756130E+02  0.24039114631E+03  0.17300000000E+03 0.  1.
       -6    1    1    2    0  503  0.11585339448E+03 -0.22665292939E+03  0.20044462490E+03  0.36728817986E+03  0.17300000000E+03 0.  1.
        6    1    1    2  502    0 -0.10101324428E+03 -0.26914344369E+02 -0.29466926967E+02  0.20426785659E+03  0.17300000000E+03 0. -1.
       -6    1    1    2    0  502 -0.44912573730E+02  0.12086644175E+03  0.74871138175E+02  0.22838678454E+03  0.17300000000E+03 0.  1.
</event>
<event>
 6   0  0.4500850E-05  0.2183603E+03  0.7546771E-02  0.1143991E+00
       21   -1    0    0  504  503  0.00000000000E+00  0.00000000000E+00  0.58534601663E+03  0.58534601663E+03  0.00000000000E+00 0. -1.
       21   -1    0    0  501  504  0.00000000000E+00  0.00000000000E+00 -0.10075336244E+04  0.10075336244E+04  0.00000000000E+00 0. -1.
        6    1    1    2  501    0  0.33521741320E+02 -0.18614812758E+01 -0.68452559720E+03  0.70684613989E+03  0.17300000000E+03 0. -1.
       -6    1    1    2    0  502 -0.13103138439E+03 -0.14926589234E+01  0.35657285472E+03  0.41742622396E+03  0.17300000000E+03 0. -1.
        6    1    1    2  502    0  0.14789564809E+03 -0.46124250398E+02 -0.14650239124E+03  0.27457698345E+03  0.17300000000E+03 0. -1.
       -6    1    1    2    0  503 -0.50386005014E+02  0.49478390598E+02  0.52267525902E+02  0.19403029377E+03  0.17300000000E+03 0.  1.
</event>
<event>
 6   0  0.4500850E-05  0.2711894E+03  0.7546771E-02  0.1113769E+00
       21   -1    0    0  504  503  0.00000000000E+00  0.00000000000E+00  0.36830700789E+03  0.36830700789E+03  0.00000000000E+00 0.  1.
       21   -1    0    0  501  504  0.00000000000E+00  0.00000000000E+00 -0.21813289228E+04  0.21813289228E+04  0.00000000000E+00 0.  1.
        6    1    1    2  501    0  0.81020803900E+02 -0.15788317990E+03 -0.12057261840E+04  0.12309330201E+04  0.17300000000E+03 0.  1.
       -6    1    1    2    0  502  0.11122914234E+03 -0.33945989361E+02 -0.14404826703E+03  0.25338341606E+03  0.17300000000E+03 0.  1.
        6    1    1    2  502    0  0.67071299057E+02 -0.55157068310E+02  0.20860072239E+03  0.28457709452E+03  0.17300000000E+03 0. -1.
       -6    1    1    2    0  503 -0.25932124530E+03  0.24698623757E+03 -0.67184818621E+03  0.78074239998E+03  0.17300000000E+03 0.  1.
</event>
<event>
 6   0  0.4500850E-05  0.3810923E+03  0.7546771E-02  0.1061548E+00
       21   -1    0    0  501  503  0.00000000000E+00  0.00000000000E+00  0.91542171226E+03  0.91542171226E+03  0.00000000000E+00 0.  1.
       21   -1    0    0  502  504  0.00000000000E+00  0.00000000000E+00 -0.14429198713E+04  0.14429198713E+04  0.00000000000E+00 0.  1.
        6    1    1    2  501    0 -0.10955230916E+03  0.99015701207E+02  0.37974393496E+03  0.44265141327E+03  0.17300000000E+03 0.  1.
       -6    1    1    2    0  503  0.75056244296E+02 -0.31371260990E+03 -0.43162724161E+03  0.56593296168E+03  0.17300000000E+03 0. -1.
        6    1    1    2  502    0  0.24426132323E+03 -0.10614107258E+03 -0.77232304760E+03  0.83506970437E+03  0.17300000000E+03 0.  1.
       -6    1    1    2    0  504 -0.20976525837E+03  0.32083798127E+03  0.29670819525E+03  0.51468750420E+03  0.17300000000E+03 0. -1.
</event>
<event>
 6   0  0.4500850E-05  0.1924039E+03  0.7546771E-02  0.1158713E+00
       21   -1    0    0  502  503  0.00000000000E+00  0.00000000000E+00  0.48228488833E+03  0.48228488833E+03  0.00000000000E+00 0. -1.
       21   -1    0    0  501  504  0.00000000000E+00  0.00000000000E+00 -0.32916628783E+03  0.32916628783E+03  0.00000000000E+00 0. -1.
        6    1    1    2  501    0 -0.80194169428E+02 -0.27214027585E+02  0.31464677848E+02  0.19516847609E+03  0.17300000000E+03 0.  1.
       -6    1    1    2    0  503  0.91395004348E+02 -0.19838108317E+02  0.89703006020E+02  0.21615324807E+03  0.17300000000E+03 0. -1.
        6    1    1    2  502    0  0.32221276749E+01  0.97514646367E+02  0.78305828712E+02  0.21349541253E+03  0.17300000000E+03 0.  1.
       -6    1    1    2    0  504 -0.14422962594E+02 -0.50462510464E+02 -0.46354912086E+02  0.18663403946E+03  0.17300000000E+03 0. -1.
</event>
<event>
 6   0  0.4500850E-05  0.5651850E+03  0.7546771E-02  0.9992359E-01
       21   -1    0    0  502  503  0.00000000000E+00  0.00000000000E+00  0.87316706949E+03  0.87316706949E+03  0.00000000000E+00 0.  1.
       21   -1    0    0  503  504  0.00000000000E+00  0.00000000000E+00 -0.50213074091E+03  0.50213074091E+03  0.00000000000E+00 0. -1.
        6    1    1    2  501    0 -0.52385438815E+02  0.22599652787E+03 -0.10390872678E+03  0.30748119992E+03  0.17300000000E+03 0. -1.
       -6    1    1    2    0  504  0.35488548410E+02  0.18367815729E+03 -0.88515600297E+02  0.26974268114E+03  0.17300000000E+03 0. -1.
        6    1    1    2  502    0 -0.76800256632E+02 -0.21646893938E+03  0.25503245167E+03  0.38435352547E+03  0.17300000000E+03 0.  1.
       -6    1    1    2    0  501  0.93697147038E+02 -0.19320574577E+03  0.30842820398E+03  0.41372040387E+03  0.17300000000E+03 0.  1.
</event>
<event>
 6   0  0.4500850E-05  0.1865400E+03  0.7546771E-02  0.1163754E+00
       21   -1    0    0  501  503  0.00000000000E+00  0.00000000000E+00  0.24058342098E+03  0.24058342098E+03  0.00000000000E+00 0. -1.
       21   -1    0    0  502  504  0.00000000000E+00  0.00000000000E+00 -0.13184762731E+04  0.13184762731E+04  0.00000000000E+00 0. -1.
        6    1    1    2  501    0  0.92907525411E+02 -0.31644873621E+02 -0.68121718373E+01  0.19901912468E+03  0.17300000000E+03 0. -1.
       -6    1    1    2    0  504 -0.45041211861E+02  0.65416682883E+02 -0.95492428256E+02  0.21296914570E+03  0.17300000000E+03 0. -1.
        6    1    1    2  502    0  0.26622078826E+00 -0.65343035768E+01 -0.94762150792E+03  0.96330591728E+03  0.17300000000E+03 0. -1.
       -6    1    1    2    0  503 -0.48132534338E+02 -0.27237505685E+02 -0.27966744120E+02  0.18376550643E+03  0.17300000000E+03 0. -1.
</event>
<event>
 6   0  0.4500850E-05  0.6037939E+03  0.7546771E-02  0.9898887E-01
        2   -1    0    0  502    0  0.00000000000E+00  0.00000000000E+00  0.15478470256E+04  0.15478470256E+04  0.00000000000E+00 0. -1.
       -2   -1    0    0    0  501  0.00000000000E+00  0.00000000000E+00 -0.25689813865E+03  0.25689813865E+03  0.00000000000E+00 0.  1.
        6    1    1    2  502    0 -0.10327669454E+03 -0.27404325039E+02  0.28991023229E+03  0.35411017418E+03  0.17300000000E+03 0. -1.
       -6    1    1    2    0  503 -0.29846577603E+03  0.38037807355E+01  0.88064762454E+02  0.35606276216E+03  0.17300000000E+03 0. -1.
        6    1    1    2  503    0  0.38249739907E+03 -0.15338586777E+02  0.57104087458E+03  0.70891199241E+03  0.17300000000E+03 0.  1.
       -6    1    1    2    0  501  0.19245071507E+02  0.38939131081E+02  0.34193301758E+03  0.38566023546E+03  0.17300000000E+03 0.  1.
</event>
<event>
 6   0  0.4500850E-05  0.2400257E+03  0.7546771E-02  0.1121981E+00
       21   -1    0    0  501  503  0.00000000000E+00  0.00000000000E+00  0.30419107518E+04  0.30419107518E+04  0.00000000000E+00 0. -1.
       21   -1    0    0  503  504  0.00000000000E+00  0.00000000000E+00 -0.20561018630E+03  0.20561018630E+03  0.00000000000E+00 0. -1.
        6    1    1    2  501    0 -0.18804514274E+03 -0.97363520367E+02  0.12689980165E+04  0.12981238757E+04  0.17300000000E+03 0. -1.
       -6    1    1    2    0  504 -0.34017376761E+02  0.34287459818E+02 -0.92899511654E+02  0.20221802859E+03  0.17300000000E+03 0. -1.
        6    1    1    2  502    0  0.28614665324E+03  0.60824560005E+02  0.12832884876E+04  0.13275307441E+04  0.17300000000E+03 0. -1.
       -6    1    1    2    0  502 -0.64084133738E+02  0.22515005435E+01  0.37691357304E+03  0.41964828964E+03  0.17300000000E+03 0.  1.
</event>
<event>
 6   0  0.4500850E-05  0.8412496E+03  0.7546771E-02  0.9780686E-01
       21   -1    0    0  502  503  0.00000000000E+00  0.00000000000E+00  0.15438063916E+04  0.15438063916E+04  0.00000000000E+00 0.  1.
       21   -1    0    0  501  504  0.00000000000E+00  0.00000000000E+00 -0.14273110963E+04  0.14273110963E+04  0.00000000000E+00 0. -1.
        6    1    1    2  501    0 -0.18016422254E+03 -0.37938547517E+02  0.44472294735E+03  0.51147432034E+03  0.17300000000E+03 0.  1.
       -6    1    1    2    0  504  0.69141173151E+02  0.26836735988E+03 -0.87859621685E+03  0.93736964637E+03  0.17300000000E+03 0. -1.
        6    1    1    2  502    0  0.65975123100E+03 -0.47699320558E+02 -0.30660606028E+02  0.68440922317E+03  0.17300000000E+03 0.  1.
       -6    1    1    2    0  503 -0.54872818161E+03 -0.18272949180E+03  0.58102917090E+03  0.83786429803E+03  0.17300000000E+03 0.  1.
</event>
<event>
 6   0  0.4500850E-05  0.3724326E+03  0.7546771E-02  0.1074972E+00
       21   -1    0    0  501  503  0.00000000000E+00  0.00000000000E+00  0.37285011645E+03  0.37285011645E+03  0.00000000000E+00 0.  1.
       21   -1    0    0  503  504  0.00000000000E+00  0.00000000000E+00 -0.47498308001E+03  0.47498308001E+03  0.00000000000E+00 0. -1.
        6    1    1    2  501    0  0.31004371363E+02 -0.42647780667E+02  0.28620504167E+02  0.18310717490E+03  0.17300000000E+03 0.  1.
       -6    1    1    2    0  502 -0.15064314372E+03  0.21366224642E+01  0.12190159835E+02  0.22972923606E+03  0.17300000000E+03 0. -1.
        6    1    1    2  502    0  0.66348309094E+02  0.91735809805E+02 -0.13455266511E+03  0.24667990719E+03  0.17300000000E+03 0. -1.
       -6    1    1    2    0  504  0.53290463264E+02 -0.51224651602E+02 -0.83909624532E+01  0.18831687831E+03  0.17300000000E+03 0.  1.
</event>
<event>
 6   0  0.4500850E-05  0.4069312E+03  0.7546771E-02  0.1049718E+00
       21   -1    0    0  501  503  0.00000000000E+00  0.00000000000E+00  0.12214199777E+04  0.12214199777E+04  0.00000000000E+00 0. -1.
       21   -1    0    0  503  504  0.00000000000E+00  0.00000000000E+00 -0.72614787073E+03  0.72614787073E+03  0.00000000000E+00 0. -1.
        6    1    1    2  501    0 -0.78333212007E+02 -0.17529748754E+03  0.52922900311E+01  0.25850011523E+03  0.17300000000E+03 0. -1.
       -6    1    1    2    0  502 -0.29761848276E+03  0.13305624466E+03  0.47009117144E+03  0.59765829283E+03  0.17300000000E+03 0. -1.
        6    1    1    2  502    0 -0.23396375126E+03  0.13622870705E+03 -0.23874994809E+03  0.40028469274E+03  0.17300000000E+03 0. -1.
       -6    1    1    2    0  504  0.60991544602E+03 -0.93987464169E+02  0.25863859361E+03  0.69112474766E+03  0.17300000000E+03 0. -1.
</event>
<event>
 6   0  0.4500850E-05  0.1047430E+04  0.7546771E-02  0.9270419E-01
       -2   -1    0    0    0  501  0.00000000000E+00  0.00000000000E+00  0.34935641073E+03  0.34935641073E+03  0.00000000000E+00 0. -1.
        2   -1    0    0  502    0  0.00000000000E+00  0.00000000000E+00 -0.30414925132E+04  0.30414925132E+04  0.00000000000E+00 0.  1.
        6    1    1    2  502    0  0.20486681144E+03 -0.30417803561E+03 -0.22822723598E+03  0.46530781105E+03  0.17300000000E+03 0. -1.
       -6    1    1    2    0  501 -0.28477087295E+03  0.69111987663E+03 -0.12047908232E+04  0.14283525691E+04  0.17300000000E+03 0.  1.
        6    1    1    2  503    0 -0.28026265994E+02  0.15128654512E+03 -0.30509585990E+03  0.38299552745E+03  0.17300000000E+03 0.  1.
       -6    1    1    2    0  503  0.10793032750E+03 -0.53822838614E+03 -0.95402218345E+03  0.11141930164E+04  0.17300000000E+03 0.  1.
</event>
<event>
 6   0  0.4500850E-05  0.2520741E+03  0.7546771E-02  0.1116252E+00
       21   -1    0    0  501  503  0.00000000000E+00  0.00000000000E+00  0.34605394248E+03  0.34605394248E+03  0.00000000000E+00 0. -1.
       21   -1    0    0  502  504  0.00000000000E+00  0.00000000000E+00 -0.12493073435E+04  0.12493073435E+04  0.00000000000E+00 0.  1.
        6    1    1    2  501    0  0.32547146522E+02  0.16096339793E+03  0.39857522318E+01  0.23856533369E+03  0.17300000000E+03 0. -1.
       -6    1    1    2    0  504  0.68891385852E+02 -0.86131867699E+02 -0.72620470887E+03  0.75463037366E+03  0.17300000000E+03 0.  1.
        6    1    1    2  502    0 -0.27045159995E+03 -0.59323229566E+02 -0.14466157510E+03  0.35709842451E+03  0.17300000000E+03 0. -1.
       -6    1    1    2    0  503  0.16901306757E+03 -0.15508300662E+02 -0.36372869278E+02  0.24506715410E+03  0.17300000000E+03 0. -1.
</event>
<event>
 6   0  0.4500850E-05  0.1925043E+03  0.7546771E-02  0.1157721E+00
       21   -1    0    0  501  503  0.00000000000E+00  0.00000000000E+00  0.11176506153E+04  0.11176506153E+04  0.00000000000E+00 0.  1.
       21   -1    0    0  503  504  0.00000000000E+00  0.00000000000E+00 -0.14657525045E+03  0.14657525045E+03  0.00000000000E+00 0.  1.
        6    1    1    2  501    0  0.35520581845E+02 -0.31223845869E+01  0.41429123150E+03  0.45037504984E+03  0.17300000000E+03 0.  1.
       -6    1    1    2    0  502 -0.27858349683E+02  0.81665303596E+02  0.16951778017E+03  0.25711979164E+03  0.17300000000E+03 0. -1.
        6    1    1    2  502    0 -0.29153755796E+02 -0.12952452521E+03  0.22133155917E+03  0.31071402156E+03  0.17300000000E+03 0.  1.
       -6    1    1    2    0  504  0.21491523634E+02  0.50981606205E+02  0.16593479399E+03  0.24601700269E+03  0.17300000000E+03 0. -1.
</event>
<event>
 6   0  0.4500850E-05  0.5768334E+03  0.7546771E-02  0.1024898E+00
       21   -1    0    0  501  503  0.00000000000E+00  0.00000000000E+00  0.26170689190E+04  0.26170689190E+04  0.00000000000E+00 0. -1.
       21   -1    0    0  502  504  0.00000000000E+00  0.00000000000E+00 -0.25022953805E+04  0.25022953805E+04  0.00000000000E+00 0. -1.
        6    1    1    2  501    0 -0.11498503521E+02 -0.50331545830E+02 -0.33943730492E+03  0.38446347558E+03  0.17300000000E+03 0.  1.
       -6    1    1    2    0  504 -0.96516844211E+02 -0.23820784931E+03 -0.20660658637E+04  0.20891662533E+04  0.17300000000E+03 0. -1.
        6    1    1    2  502    0  0.25663190605E+03  0.24355658155E+03  0.64234238760E+03  0.75346697772E+03  0.17300000000E+03 0.  1.
       -6    1    1    2    0  503 -0.14861655832E+03  0.44982813593E+02  0.18779343195E+04  0.18922675929E+04  0.17300000000E+03 0. -1.
</event>
<event>
 6   0  0.4500850E-05  0.3163375E+03  0.7546771E-02  0.1087290E+00
       21   -1    0    0  501  503  0.00000000000E+00  0.00000000000E+00  0.73367807017E+03  0.73367807017E+03  0.00000000000E+00 0.  1.
       21   -1    0    0  502  504  0.00000000000E+00  0.00000000000E+00 -0.10778414302E+04  0.10778414302E+04  0.00000000000E+00 0. -1.
        6    1    1    2  501    0 -0.76967500803E+01  0.19732446249E+03  0.30461342624E+03  0.40213744280E+03  0.17300000000E+03 0.  1.
       -6    1    1    2    0  503  0.35641422733E+03 -0.25452843124E+03 -0.19331072984E+03  0.50903227994E+03  0.17300000000E+03 0. -1.
        6    1    1    2  502    0 -0.10023652137E+03 -0.15847069691E+02 -0.54131159965E+03  0.57727440421E+03  0.17300000000E+03 0. -1.
       -6    1    1    2    0  504 -0.24848095588E+03  0.73051038439E+02  0.85845543184E+02  0.32307537346E+03  0.17300000000E+03 0.  1.
</event>
<event>
 6   0  0.4500850E-05  0.2249000E+03  0.7546771E-02  0.1131362E+00
       21   -1    0    0  504  503  0.00000000000E+00  0.00000000000E+00  0.65005934108E+03  0.65005934108E+03  0.00000000000E+00 0.  1.
       21   -1    0    0  501  504  0.00000000000E+00  0.00000000000E+00 -0.42339395111E+03  0.42339395111E+03  0.00000000000E+00 0. -1.
        6    1    1    2  501    0 -0.10421834895E+03  0.50429899295E+02 -0.15948931551E+03  0.26224126442E+03  0.17300000000E+03 0. -1.
       -6    1    1    2    0  502  0.89658913745E+02  0.42733350417E+02  0.84877323777E+02  0.21679026764E+03  0.17300000000E+03 0.  1.
        6    1    1    2  502    0  0.16139787699E+03 -0.97412290443E+02  0.25803073562E+03  0.36338311677E+03  0.17300000000E+03 0.  1.
       -6    1    1    2    0  503 -0.14683844178E+03  0.42490407303E+01  0.43246646080E+02  0.23103864337E+03  0.17300000000E+03 0.  1.
</event>
<event>
 6   0  0.4500850E-05  0.2400249E+03  0.7546771E-02  0.1120800E+00
       21   -1    0    0  504  503  0.00000000000E+00  0.00000000000E+00  0.32326349649E+04  0.32326349649E+04  0.00000000000E+00 0.  1.
       21   -1    0    0  502  504  0.00000000000E+00  0.00000000000E+00 -0.71907161932E+03  0.71907161932E+03  0.00000000000E+00 0. -1.
        6    1    1    2  501    0 -0.66085133851E+02  0.85719179902E+02  0.27953068012E+04  0.28027458207E+04  0.17300000000E+03 0.  1.
       -6    1    1    2    0  501  0.83452191819E+02 -0.31766911320E+03 -0.79198601041E+02  0.37957786053E+03  0.17300000000E+03 0. -1.
        6    1    1    2  502    0  0.88511768474E+01  0.98794672807E+02 -0.41700515947E+03  0.46223482531E+03  0.17300000000E+03 0. -1.
       -6    1    1    2    0  503 -0.26218234816E+02  0.13315526049E+03  0.21446030491E+03  0.30714807767E+03  0.17300000000E+03 0. -1.
</event>
<event>
 6   0  0.4500850E-05  0.2370212E+03  0.7546771E-02  0.1132530E+00
       21   -1    0    0  502  503  0.00000000000E+00  0.00000000000E+00  0.39873499822E+03  0.39873499822E+03  0.00000000000E+00 0. -1.
       21   -1    0    0  501  504  0.00000000000E+00  0.00000000000E+00 -0.78931508941E+03  0.78931508941E+03  0.00000000000E+00 0. -1.
        6    1    1    2  501    0  0.75625030643E+02 -0.15549781609E+03  0.57600172753E+02  0.25128767572E+03  0.17300000000E+03 0. -1.
       -6    1    1    2    0  504 -0.66262174973E+02  0.34759617893E+02 -0.34343064132E+03  0.39175567930E+03  0.17300000000E+03 0. -1.
        6    1    1    2  502    0  0.52095944111E+02 -0.20503147888E+02 -0.22071038953E+03  0.28596580654E+03  0.17300000000E+03 0. -1.
       -6    1    1    2    0  503 -0.61458799781E+02  0.14124134608E+03  0.11596076691E+03  0.25904092606E+03  0.17300000000E+03 0.  1.
</event>
<event>
 6   0  0.4500850E-05  0.2719580E+03  0.7546771E-02  0.1102934E+00
       21   -1    0    0  504  503  0.00000000000E+00  0.00000000000E+00  0.10917516005E+04  0.10917516005E+04  0.00000000000E+00 0. -1.
       21   -1    0    0  502  504  0.00000000000E+00  0.00000000000E+00 -0.44810034629E+03  0.44810034629E+03  0.00000000000E+00 0.  1.
        6    1    1    2  501    0 -0.15488877953E+03  0.10148909394E+03  0.20753949332E+02  0.25426422601E+03  0.17300000000E+03 0.  1.
       -6    1    1    2    0  503  0.15161576769E+03 -0.10568266785E+03  0.47249960310E+03  0.53604201536E+03  0.17300000000E+03 0. -1.
        6    1    1    2  502    0  0.16945024124E+03  0.12518931010E+03 -0.17775241015E+03  0.32543919084E+03  0.17300000000E+03 0.  1.
       -6    1    1    2    0  501 -0.16617722940E+03 -0.12099573619E+03  0.32815011188E+03  0.42410651454E+03  0.17300000000E+03 0. -1.
</event>
<event>
 6   0  0.4500850E-05  0.3780718E+03  0.7546771E-02  0.1070514E+00
       21   -1    0    0  504  503  0.00000000000E+00  0.00000000000E+00  0.34870087497E+03  0.34870087497E+03  0.00000000000E+00 0.  1.
       21   -1    0    0  501  504  0.00000000000E+00  0.00000000000E+00 -0.21215125642E+04  0.21215125642E+04  0.00000000000E+00 0.  1.
        6    1    1    2  501    0  0.22206735281E+03  0.26891136179E+03 -0.12342803022E+04  0.12942194922E+04  0.17300000000E+03 0.  1.
       -6    1    1    2    0  503 -0.25056916353E+03  0.15446951398E+03 -0.93815273133E+02  0.35408479484E+03  0.17300000000E+03 0.  1.
        6    1    1    2  502    0 -0.64891942208E+02 -0.44079848922E+03 -0.23051533143E+03  0.53064167787E+03  0.17300000000E+03 0.  1.
       -6    1    1    2    0  502  0.93393752932E+02  0.17417613450E+02 -0.21420078253E+03  0.29126747429E+03  0.17300000000E+03 0. -1.
</event>
<event>
 6   0  0.4500850E-05  0.2964936E+03  0.7546771E-02  0.1100197E+00
       21   -1    0    0  501  503  0.00000000000E+00  0.00000000000E+00  0.41387335674E+03  0.41387335674E+03  0.00000000000E+00 0.  1.
       21   -1    0    0  502  504  0.00000000000E+00  0.00000000000E+00 -0.18308608445E+04  0.18308608445E+04  0.00000000000E+00 0.  1.
        6    1    1    2  501    0  0.34341086250E+03  0.19365123528E+03 -0.42544095160E+03  0.60527747745E+03  0.17300000000E+03 0.  1.
       -6    1    1    2    0  504 -0.49053949112E+02 -0.15675022141E+02 -0.10480524787E+04  0.10634824843E+04  0.17300000000E+03 0.  1.
        6    1    1    2  502    0 -0.11164130487E+03 -0.18744332326E+03 -0.79799831628E+02  0.28964770587E+03  0.17300000000E+03 0. -1.
       -6    1    1    2    0  503 -0.18271560852E+03  0.94671101221E+01  0.13630577421E+03  0.28632653361E+03  0.17300000000E+03 0.  1.
</event>
<event>
 6   0  0.4500850E-05  0.2714095E+03  0.7546771E-02  0.1110533E+00
       21   -1    0    0  501  503  0.00000000000E+00  0.00000000000E+00  0.87798134035E+03  0.87798134035E+03  0.00000000000E+00 0. -1.
       21   -1    0    0  503  504  0.00000000000E+00  0.00000000000E+00 -0.11303967429E+04  0.11303967429E+04  0.00000000000E+00 0. -1.
        6    1    1    2  501    0  0.28567761896E+03  0.27048313390E+03  0.25369887852E+03  0.49906407270E+03  0.17300000000E+03 0. -1.
       -6    1    1    2    0  502 -0.73847254015E+02 -0.13231471480E+03  0.41346688476E+03  0.47312204078E+03  0.17300000000E+03 0. -1.
        6    1    1    2  502    0  0.12277837751E+02 -0.41040474570E+02 -0.34830024149E+03  0.39125071767E+03  0.17300000000E+03 0.  1.
       -6    1    1    2    0  504 -0.22410820270E+03 -0.97127944530E+02 -0.57128092432E+03  0.64494125207E+03  0.17300000000E+03 0. -1.
</event>
<event>
 6   0  0.4500850E-05  0.1908486E+03  0.7546771E-02  0.1160081E+00
       21   -1    0    0  501  503  0.00000000000E+00  0.00000000000E+00  0.81473399062E+03  0.81473399062E+03  0.00000000000E+00 0.  1.
       21   -1    0    0  502  504  0.00000000000E+00  0.00000000000E+00 -0.68813404385E+03  0.68813404385E+03  0.00000000000E+00 0. -1.
        6    1    1    2  501    0 -0.75042789597E+02 -0.87627418596E+02 -0.20199423394E+03  0.28989766350E+03  0.17300000000E+03 0. -1.
       -6    1    1    2    0  503  0.58505128370E+02 -0.28290267504E+02 -0.18410918427E+03  0.26086084607E+03  0.17300000000E+03 0. -1.
        6    1    1    2  502    0 -0.21573927334E+02  0.46878671867E+02 -0.16723565322E+03  0.24608902439E+03  0.17300000000E+03 0. -1.
       -6    1    1    2    0  504  0.38111588561E+02  0.69039014233E+02  0.67993901820E+03  0.70602050051E+03  0.17300000000E+03 0.  1.
</event>
<event>
 6   0  0.4500850E-05  0.2669381E+03  0.7546771E-02  0.1111368E+00
       21   -1    0    0  501  503  0.00000000000E+00  0.00000000000E+00  0.12676034245E+04  0.12676034245E+04  0.00000000000E+00 0.  1.
       21   -1    0    0  502  504  0.00000000000E+00  0.00000000000E+00 -0.56536492951E+03  0.56536492951E+03  0.00000000000E+00 0.  1.
        6    1    1    2  501    0 -0.20021570668E+03 -0.28124219863E+03  0.27540453012E+02  0.38713173474E+03  0.17300000000E+03 0.  1.
       -6    1    1    2    0  504 -0.25006580012E+02  0.13242872165E+03 -0.27270192364E+03  0.34994004418E+03  0.17300000000E+03 0. -1.
        6    1    1    2  502    0  0.20411503036E+03  0.11110520199E+03  0.27213373121E+03  0.39748343260E+03  0.17300000000E+03 0.  1.
       -6    1    1    2    0  503  0.21107256329E+02  0.37708274989E+02  0.67526623443E+03  0.69841314251E+03  0.17300000000E+03 0.  1.
</event>
<event>
 6   0  0.4500850E-05  0.7253988E+03  0.7546771E-02  0.1008352E+00
       21   -1    0    0  504  503  0.00000000000E+00  0.00000000000E+00  0.55198408023E+03  0.55198408023E+03  0.00000000000E+00 0. -1.
       21   -1    0    0  501  504  0.00000000000E+00  0.00000000000E+00 -0.15251597722E+04  0.15251597722E+04  0.00000000000E+00 0. -1.
        6    1    1    2  501    0  0.60053668335E+03 -0.25501559566E+03 -0.88128268641E+03  0.11100745180E+04  0.17300000000E+03 0. -1.
       -6    1    1    2    0  502 -0.16953413758E+02 -0.47955902734E+02 -0.25237269208E+02  0.18207994563E+03  0.17300000000E+03 0. -1.
        6    1    1    2  502    0 -0.13495767829E+03  0.45832456302E+02 -0.84197443215E+02  0.23944184769E+03  0.17300000000E+03 0. -1.
       -6    1    1    2    0  503 -0.44862559131E+03  0.25713904209E+03  0.17541706888E+02  0.54554754112E+03  0.17300000000E+03 0. -1.
</event>
<event>
 6   0  0.4500850E-05  0.2301324E+03  0.7546771E-02  0.1128941E+00
       21   -1    0    0  502  503  0.00000000000E+00  0.00000000000E+00  0.68864079453E+03  0.68864079453E+03  0.00000000000E+00 0. -1.
       21   -1    0    0  501  504  0.00000000000E+00  0.00000000000E+00 -0.17562904063E+04  0.17562904063E+04  0.00000000000E+00 0. -1.
        6    1    1    2  501    0 -0.89221154234E+02 -0.26133343630E+03 -0.14553021751E+04  0.14913379899E+04  0.17300000000E+03 0. -1.
       -6    1    1    2    0  504 -0.22667923035E+02 -0.12021408359E+03 -0.77451507542E+00  0.21188407326E+03  0.17300000000E+03 0.  1.
        6    1    1    2  502    0  0.19778438484E+02  0.24476456952E+03  0.40256968599E+03  0.50228700281E+03  0.17300000000E+03 0. -1.
       -6    1    1    2    0  503  0.92110638784E+02  0.13678295037E+03 -0.14142607550E+02  0.23942213481E+03  0.17300000000E+03 0. -1.
</event>
<event>
 6   0  0.4500850E-05  0.6544673E+03  0.7546771E-02  0.9859829E-01
       -2   -1    0    0    0  501  0.00000000000E+00  0.00000000000E+00  0.14091907165E+04  0.14091907165E+04  0.00000000000E+00 0.  1.
        2   -1    0    0  503    0  0.00000000000E+00  0.00000000000E+00 -0.29865422873E+03  0.29865422873E+03  0.00000000000E+00 0. -1.
        6    1    1    2  502    0  0.13918681352E+03 -0.10092048142E+03  0.11072018570E+02  0.24415057285E+03  0.17300000000E+03 0. -1.
       -6    1    1    2    0  502 -0.16648513318E+03  0.24706201490E+03  0.29650901812E+03  0.45453661744E+03  0.17300000000E+03 0. -1.
        6    1    1    2  503    0 -0.17044411584E+03 -0.64183179555E+02  0.64416786103E+03  0.69141298104E+03  0.17300000000E+03 0.  1.
       -6    1    1    2    0  501  0.19774243550E+03 -0.81958353925E+02  0.15878759002E+03  0.31774477387E+03  0.17300000000E+03 0. -1.
</event>
<event>
 6   0  0.4500850E-05  0.3259890E+03  0.7546771E-02  0.1075125E+00
       21   -1    0    0  504  503  0.00000000000E+00  0.00000000000E+00  0.54366454220E+03  0.54366454220E+03  0.00000000000E+00 0. -1.
       21   -1    0    0  502  504  0.00000000000E+00  0.00000000000E+00 -0.35354948980E+04  0.35354948980E+04  0.00000000000E+00 0.  1.
        6    1    1    2  501    0  0.16968963822E+03  0.10025469453E+03  0.40206667069E+03  0.48003352464E+03  0.17300000000E+03 0. -1.
       -6    1    1    2    0  501 -0.19801623404E+03  0.32941712532E+02 -0.98397010806E+03  0.10190298126E+04  0.17300000000E+03 0. -1.
        6    1    1    2  502    0 -0.16770232266E+03 -0.31537415021E+03 -0.20943277186E+04  0.21316009281E+04  0.17300000000E+03 0.  1.
       -6    1    1    2    0  503  0.19602891848E+03  0.18217774315E+03 -0.31559919983E+03  0.44849517491E+03  0.17300000000E+03 0.  1.
</event>
<event>
 6   0  0.4500850E-05  0.2498313E+03  0.7546771E-02  0.1117663E+00
       21   -1    0    0  504  503  0.00000000000E+00  0.00000000000E+00  0.48432186507E+03  0.48432186507E+03  0.00000000000E+00 0. -1.
       21   -1    0    0  501  504  0.00000000000E+00  0.00000000000E+00 -0.20187308949E+04  0.20187308949E+04  0.00000000000E+00 0. -1.
        6    1    1    2  501    0  0.18076232218E+03  0.33501446997E+02 -0.15016455326E+04  0.15227165428E+04  0.17300000000E+03 0. -1.
       -6    1    1    2    0  503 -0.15285874955E+03 -0.19701192874E+03  0.29292620531E+03  0.42179883729E+03  0.17300000000E+03 0. -1.
        6    1    1    2  502    0 -0.53104963597E+02  0.51462747441E+02 -0.20294265784E+02  0.18923374106E+03  0.17300000000E+03 0. -1.
       -6    1    1    2    0  502  0.25201390971E+02  0.11204773430E+03 -0.30539543674E+03  0.36930363882E+03  0.17300000000E+03 0.  1.
</event>
<event>
 6   0  0.4500850E-05  0.3074754E+03  0.7546771E-02  0.1093353E+00
       21   -1    0    0  502  503  0.00000000000E+00  0.00000000000E+00  0.51873159748E+03  0.51873159748E+03  0.00000000000E+00 0. -1.
       21   -1    0    0  503  504  0.00000000000E+00  0.00000000000E+00 -0.12753686334E+04  0.12753686334E+04  0.00000000000E+00 0.  1.
        6    1    1    2  501    0  0.16237935921E+03 -0.27617560403E+03 -0.17006626863E+03  0.40186012030E+03  0.17300000000E+03 0. -1.
       -6    1    1    2    0  501 -0.16626106491E+03  0.17152003415E+03  0.22152285156E+03  0.36886750681E+03  0.17300000000E+03 0. -1.
        6    1    1    2  502    0 -0.10215470931E+03  0.20140548678E+03 -0.13723294872E+03  0.31585065609E+03  0.17300000000E+03 0. -1.
       -6    1    1    2    0  504  0.10603641500E+03 -0.96749916902E+02 -0.67086067008E+03  0.70752194764E+03  0.17300000000E+03 0.  1.
</event>
<event>
 6   0  0.4500850E-05  0.3243788E+03  0.7546771E-02  0.1087291E+00
       21   -1    0    0  504  503  0.00000000000E+00  0.00000000000E+00  0.67406086396E+03  0.67406086396E+03  0.00000000000E+00 0. -1.
       21   -1    0    0  502  504  0.00000000000E+00  0.00000000000E+00 -0.13332027421E+04  0.13332027421E+04  0.00000000000E+00 0.  1.
        6    1    1    2  501    0  0.30092622426E+03  0.12351819249E+03  0.18689608438E+03  0.41312526270E+03  0.17300000000E+03 0. -1.
       -6    1    1    2    0  501 -0.39085583667E+03  0.63397456934E+01 -0.48526930385E+03  0.64670223032E+03  0.17300000000E+03 0.  1.
        6    1    1    2  502    0  0.62398561542E+01  0.47942653085E+02 -0.57923415164E+03  0.60644755438E+03  0.17300000000E+03 0. -1.
       -6    1    1    2    0  503  0.83689756252E+02 -0.17780059127E+03  0.21846549294E+03  0.34098855870E+03  0.17300000000E+03 0.  1.
</event>
<event>
 6   0  0.4500850E-05  0.2415363E+03  0.7546771E-02  0.1124048E+00
       21   -1    0    0  502  503  0.00000000000E+00  0.00000000000E+00  0.52874082496E+03  0.52874082496E+03  0.00000000000E+00 0.  1.
       21   -1    0    0  501  504  0.00000000000E+00  0.00000000000E+00 -0.16508244520E+04  0.16508244520E+04  0.00000000000E+00 0. -1.
        6    1    1    2  501    0  0.11460427930E+03 -0.92816837457E+02 -0.39359597943E+03  0.45452821824E+03  0.17300000000E+03 0. -1.
       -6    1    1    2    0  503 -0.16779741706E+03 -0.92626591791E+02 -0.10810901141E+04  0.11114947114E+04  0.17300000000E+03 0.  1.
        6    1    1    2  502    0  0.14438657121E+03  0.20500233200E+03  0.23238032289E+03  0.38314886472E+03  0.17300000000E+03 0.  1.
       -6    1    1    2    0  504 -0.91193433443E+02 -0.19558902750E+02  0.12022214364E+03  0.23039348255E+03  0.17300000000E+03 0.  1.
</event>
<event>
 6   0  0.4500850E-05  0.3725326E+03  0.7546771E-02  0.1077833E+00
       21   -1    0    0  502  503  0.00000000000E+00  0.00000000000E+00  0.56051574830E+03  0.56051574830E+03  0.00000000000E+00 0. -1.
       21   -1    0    0  501  504  0.00000000000E+00  0.00000000000E+00 -0.11914855093E+04  0.11914855093E+04  0.00000000000E+00 0.  1.
        6    1    1    2  501    0 -0.23735500014E+01  0.81292611068E+02 -0.11224438461E+03  0.22167977858E+03  0.17300000000E+03 0.  1.
       -6    1    1    2    0  503 -0.28755723285E+03 -0.33362759186E+02 -0.72689183277E+02  0.34498543916E+03  0.17300000000E+03 0.  1.
        6    1    1    2  502    0  0.28846015770E+03  0.24001861361E+03  0.19856966522E+03  0.45845077097E+03  0.17300000000E+03 0. -1.
       -6    1    1    2    0  504  0.14706251559E+01 -0.28794846549E+03 -0.64460585831E+03  0.72688526886E+03  0.17300000000E+03 0.  1.
</event>
<event>
 6   0  0.4500850E-05  0.6302904E+03  0.7546771E-02  0.9962726E-01
       21   -1    0    0  502  503  0.00000000000E+00  0.00000000000E+00  0.10899185392E+04  0.10899185392E+04  0.00000000000E+00 0. -1.
       21   -1    0    0  503  504  0.00000000000E+00  0.00000000000E+00 -0.78039340261E+03  0.78039340261E+03  0.00000000000E+00 0.  1.
        6    1    1    2  501    0  0.39463690250E+03 -0.88980344885E+01 -0.17236519942E+03  0.46417262070E+03  0.17300000000E+03 0. -1.
       -6    1    1    2    0  501 -0.27205218617E+03  0.46648046422E+03 -0.56391764980E+02  0.56984686246E+03  0.17300000000E+03 0.  1.
        6    1    1    2  502    0 -0.10006902461E+03 -0.27620418944E+03  0.46033532741E+03  0.57283520982E+03  0.17300000000E+03 0. -1.
       -6    1    1    2    0  504 -0.22515691725E+02 -0.18137824030E+03  0.77946773527E+02  0.26345724877E+03  0.17300000000E+03 0. -1.
</event>
<event>
 6   0  0.4500850E-05  0.3042556E+03  0.7546771E-02  0.1089827E+00
       21   -1    0    0  502  503  0.00000000000E+00  0.00000000000E+00  0.12020719253E+04  0.12020719253E+04  0.00000000000E+00 0. -1.
       21   -1    0    0  501  504  0.00000000000E+00  0.00000000000E+00 -0.83631378643E+03  0.83631378643E+03  0.00000000000E+00 0. -1.
        6    1    1    2  501    0  0.15461498981E+03  0.18094178884E+03 -0.38354930922E+03  0.48340955579E+03  0.17300000000E+03 0. -1.
       -6    1    1    2    0  504  0.97326726684E+01  0.14813637772E+03  0.30685824066E+02  0.23002115364E+03  0.17300000000E+03 0.  1.
        6    1    1    2  502    0  0.43694825867E+02 -0.22207968571E+03  0.92523237079E+03  0.96809739415E+03  0.17300000000E+03 0. -1.
       -6    1    1    2    0  503 -0.20804248834E+03 -0.10699848086E+03 -0.20661074673E+03  0.35685760819E+03  0.17300000000E+03 0. -1.
</event>
<event>
 6   0  0.4500850E-05  0.2307205E+03  0.7546771E-02  0.1133959E+00
       21   -1    0    0  504  503  0.00000000000E+00  0.00000000000E+00  0.36532580476E+03  0.36532580476E+03  0.00000000000E+00 0.  1.
       21   -1    0    0  501  504  0.00000000000E+00  0.00000000000E+00 -0.59276217176E+03  0.59276217176E+03  0.00000000000E+00 0.  1.
        6    1    1    2  501    0 -0.52938835521E+02  0.12143577716E+03 -0.80633884183E+02  0.23233594547E+03  0.17300000000E+03 0.  1.
       -6    1    1    2    0  503  0.37042138604E+02 -0.63580289688E+01  0.21873039766E+02  0.17838154174E+03  0.17300000000E+03 0.  1.
        6    1    1    2  502    0 -0.13050348272E+03 -0.16825037005E+03 -0.28959904017E+02  0.27587501167E+03  0.17300000000E+03 0.  1.
       -6    1    1    2    0  502  0.14640017963E+03  0.53172621853E+02 -0.13971561856E+03  0.27149547765E+03  0.17300000000E+03 0.  1.
</event>
<event>
 6   0  0.4500850E-05  0.2297059E+03  0.7546771E-02  0.1128629E+00
       21   -1    0    0  504  503  0.00000000000E+00  0.00000000000E+00  0.35711100719E+03  0.35711100719E+03  0.00000000000E+00 0.  1.
       21   -1    0    0  501  504  0.00000000000E+00  0.00000000000E+00 -0.68822184485E+03  0.68822184485E+03  0.00000000000E+00 0.  1.
        6    1    1    2  501    0 -0.42974011802E+02  0.24238015285E+03 -0.96121125109E+02  0.31585309066E+03  0.17300000000E+03 0.  1.
       -6    1    1    2    0  503  0.13268919454E+02 -0.79699270126E+02 -0.33343682320E+01  0.19096637372E+03  0.17300000000E+03 0.  1.
        6    1    1    2  502    0  0.11711762691E+03 -0.13720532785E+03 -0.23488573322E+03  0.34299001180E+03  0.17300000000E+03 0.  1.
       -6    1    1    2    0  502 -0.87412534559E+02 -0.25475554876E+02  0.32303889089E+01  0.19552337586E+03  0.17300000000E+03 0. -1.
</event>
<event>
 6   0  0.4500850E-05  0.2106701E+03  0.7546771E-02  0.1141147E+00
       21   -1    0    0  502  503  0.00000000000E+00  0.00000000000E+00  0.19667804110E+03  0.19667804110E+03  0.00000000000E+00 0. -1.
       21   -1    0    0  501  504  0.00000000000E+00  0.00000000000E+00 -0.10636585844E+04  0.10636585844E+04  0.00000000000E+00 0.  1.
        6    1    1    2  501    0  0.37067158899E+02 -0.31115322787E+02 -0.53022811614E+02  0.18730337993E+03  0.17300000000E+03 0. -1.
       -6    1    1    2    0  504 -0.43685492134E+02  0.79620287704E+01 -0.27590802980E+03  0.32867317663E+03  0.17300000000E+03 0. -1.
        6    1    1    2  502    0 -0.27626222508E+02  0.19140986478E+03 -0.20006592310E+03  0.32765274009E+03  0.17300000000E+03 0. -1.
       -6    1    1    2    0  503  0.34244555744E+02 -0.16825657076E+03 -0.33798377883E+03  0.41670732890E+03  0.17300000000E+03 0.  1.
</event>
<event>
 6   0  0.4500850E-05  0.6088336E+03  0.7546771E-02  0.9907887E-01
       -2   -1    0    0    0  501  0.00000000000E+00  0.00000000000E+00  0.39201898392E+03  0.39201898392E+03  0.00000000000E+00 0. -1.
        2   -1    0    0  502    0  0.00000000000E+00  0.00000000000E+00 -0.95609742829E+03  0.95609742829E+03  0.00000000000E+00 0.  1.
        6    1    1    2  502    0 -0.38716624092E+02 -0.29484631968E+03  0.58280483284E+02  0.34893974256E+03  0.17300000000E+03 0. -1.
       -6    1    1    2    0  501  0.63091813650E+02  0.25557673784E+03 -0.12551337499E+03  0.33909092170E+03  0.17300000000E+03 0.  1.
        6    1    1    2  503    0  0.95102697114E+02  0.66204149585E+02 -0.33057779461E+03  0.39068937881E+03  0.17300000000E+03 0.  1.
       -6    1    1    2    0  503 -0.11947788667E+03 -0.26934567750E+02 -0.16626775804E+03  0.26939636914E+03  0.17300000000E+03 0. -1.
</event>
<event>
 6   0  0.4500850E-05  0.5039396E+03  0.7546771E-02  0.1044388E+00
       21   -1    0    0  501  503  0.00000000000E+00  0.00000000000E+00  0.55568385496E+03  0.55568385496E+03  0.00000000000E+00 0. -1.
       21   -1    0    0  502  504  0.00000000000E+00  0.00000000000E+00 -0.12585344427E+04  0.12585344427E+04  0.00000000000E+00 0. -1.
        6    1    1    2  501    0 -0.64647434554E+02  0.67270809559E+02  0.31704215846E+03  0.37302732186E+03  0.17300000000E+03 0.  1.
       -6    1    1    2    0  503  0.25240207345E+03 -0.37881229955E+02 -0.72104323171E+03  0.78420286677E+03  0.17300000000E+03 0. -1.
        6    1    1    2  502    0  0.62268062597E+02 -0.78715504958E+02 -0.28562499559E+03  0.34868908851E+03  0.17300000000E+03 0. -1.
       -6    1    1    2    0  504 -0.25002270149E+03  0.49325925354E+02 -0.13224518938E+02  0.30829902055E+03  0.17300000000E+03 0. -1.
</event>
<event>
 6   0  0.4500850E-05  0.2514974E+03  0.7546771E-02  0.1121218E+00
       21   -1    0    0  501  503  0.00000000000E+00  0.00000000000E+00  0.26923393867E+03  0.26923393867E+03  0.00000000000E+00 0.  1.
       21   -1    0    0  502  504  0.00000000000E+00  0.00000000000E+00 -0.12727356782E+04  0.12727356782E+04  0.00000000000E+00 0. -1.
        6    1    1    2  501    0  0.36577738112E+02 -0.20358244810E+03 -0.22501879823E+03  0.35120678191E+03  0.17300000000E+03 0.  1.
       -6    1    1    2    0  503  0.11273133358E+03  0.15461501375E+03  0.24425075615E+02  0.25911337358E+03  0.17300000000E+03 0.  1.
        6    1    1    2  502    0 -0.14477026835E+03 -0.53792147552E+02 -0.61109083315E+03  0.65361535485E+03  0.17300000000E+03 0.  1.
       -6    1    1    2    0  504 -0.45388033413E+01  0.10275958190E+03 -0.19181718378E+03  0.27803410654E+03  0.17300000000E+03 0. -1.
</event>
<event>
 6   0  0.4500850E-05  0.5340825E+03  0.7546771E-02  0.1005501E+00
       -2   -1    0    0    0  501  0.00000000000E+00  0.00000000000E+00  0.38543608328E+03  0.38543608328E+03  0.00000000000E+00 0. -1.
        2   -1    0    0  503    0  0.00000000000E+00  0.00000000000E+00 -0.11803557815E+04  0.11803557815E+04  0.00000000000E+00 0.  1.
        6    1    1    2  502    0  0.24745558839E+03 -0.33324212229E+02  0.12863652631E+03  0.32988047418E+03  0.17300000000E+03 0. -1.
       -6    1    1    2    0  501  0.95670427630E+02  0.41692465631E+02 -0.43805283491E+02  0.20673411735E+03  0.17300000000E+03 0. -1.
        6    1    1    2  503    0 -0.14791593804E+03 -0.10029400818E+03 -0.32448065348E+03  0.40884557878E+03  0.17300000000E+03 0.  1.
       -6    1    1    2    0  502 -0.19521007798E+03  0.91925754781E+02 -0.55527028759E+03  0.62033169451E+03  0.17300000000E+03 0.  1.
</event>
<event>
 6   0  0.4500850E-05  0.2129988E+03  0.7546771E-02  0.1145054E+00
       21   -1    0    0  501  503  0.00000000000E+00  0.00000000000E+00  0.17749546472E+04  0.17749546472E+04  0.00000000000E+00 0. -1.
       21   -1    0    0  503  504  0.00000000000E+00  0.00000000000E+00 -0.23716955749E+03  0.23716955749E+03  0.00000000000E+00 0.  1.
        6    1    1    2  501    0  0.65755431805E+02 -0.33371377223E+01  0.11290857369E+04  0.11441584307E+04  0.17300000000E+03 0. -1.
       -6    1    1    2    0  502  0.11649898426E+03  0.26356509541E+01 -0.53255510064E+02  0.21527682026E+03  0.17300000000E+03 0. -1.
        6    1    1    2  502    0 -0.15724202628E+03  0.86656305025E+02  0.34440071094E+03  0.42517669236E+03  0.17300000000E+03 0.  1.
       -6    1    1    2    0  504 -0.25012389785E+02 -0.85954818257E+02  0.11755415190E+03  0.22751226132E+03  0.17300000000E+03 0.  1.
</event>
<event>
 6   0  0.4500850E-05  0.5254352E+03  0.7546771E-02  0.1007345E+00
       -1   -1    0    0    0  501  0.00000000000E+00  0.00000000000E+00  0.10280082716E+04  0.10280082716E+04  0.00000000000E+00 0. -1.
        1   -1    0    0  503    0  0.00000000000E+00  0.00000000000E+00 -0.50270880782E+03  0.50270880782E+03  0.00000000000E+00 0.  1.
        6    1    1    2  502    0  0.34211309166E+03  0.21558632764E+02  0.66090794463E+02  0.38961921827E+03  0.17300000000E+03 0. -1.
       -6    1    1    2    0  502 -0.30782634430E+03 -0.59919669889E+01  0.18663204858E+03  0.39944146438E+03  0.17300000000E+03 0.  1.
        6    1    1    2  503    0  0.13751248036E+03  0.84494952667E+02 -0.12274386207E+03  0.26654105680E+03  0.17300000000E+03 0. -1.
       -6    1    1    2    0  501 -0.17179922772E+03 -0.10006161844E+03  0.39532048277E+03  0.47511533992E+03  0.17300000000E+03 0.  1.
</event>
<event>
 6   0  0.4500850E-05  0.2800194E+03  0.7546771E-02  0.1110484E+00
       21   -1    0    0  504  503  0.00000000000E+00  0.00000000000E+00  0.59011076846E+03  0.59011076846E+03  0.00000000000E+00 0.  1.
       21   -1    0    0  502  504  0.00000000000E+00  0.00000000000E+00 -0.76748552751E+03  0.76748552751E+03  0.00000000000E+00 0.  1.
        6    1    1    2  501    0  0.23754959846E+02  0.77658739790E+02  0.29184636409E+03  0.34885308974E+03  0.17300000000E+03 0.  1.
       -6    1    1    2    0  501  0.22639613597E+03 -0.75703540782E+02 -0.43809277137E+03  0.52805351319E+03  0.17300000000E+03 0.  1.
        6    1    1    2  502    0 -0.16726245214E+03  0.75904406589E+02 -0.85886053470E+02  0.26654009270E+03  0.17300000000E+03 0.  1.
       -6    1    1    2    0  503 -0.82888643674E+02 -0.77859605598E+02  0.54757701689E+02  0.21414960035E+03  0.17300000000E+03 0.  1.
</event>
<event>
 6   0  0.4500850E-05  0.2960660E+03  0.7546771E-02  0.1097479E+00
       21   -1    0    0  502  503  0.00000000000E+00  0.00000000000E+00  0.47928670467E+03  0.47928670467E+03  0.00000000000E+00 0.  1.
       21   -1    0    0  501  504  0.00000000000E+00  0.00000000000E+00 -0.34809557294E+04  0.34809557294E+04  0.00000000000E+00 0.  1.
        6    1    1    2  501    0 -0.25234240332E+03  0.16811651670E+03  0.19959002859E+03  0.40212564108E+03  0.17300000000E+03 0.  1.
       -6    1    1    2    0  504 -0.75482825739E+02 -0.22246453847E+03 -0.26028546186E+04  0.26191543088E+04  0.17300000000E+03 0.  1.
        6    1    1    2  502    0  0.21325130213E+03 -0.28185683806E+01 -0.66019996320E+03  0.71503640018E+03  0.17300000000E+03 0. -1.
       -6    1    1    2    0  503  0.11457392694E+03  0.57166590159E+02  0.61795528443E+02  0.22392608401E+03  0.17300000000E+03 0. -1.
</event>
<event>
 6   0  0.4500850E-05  0.2206161E+03  0.7546771E-02  0.1135872E+00
       21   -1    0    0  502  503  0.00000000000E+00  0.00000000000E+00  0.22023137572E+04  0.22023137572E+04  0.00000000000E+00 0. -1.
       21   -1    0    0  501  504  0.00000000000E+00  0.00000000000E+00 -0.93525631168E+03  0.93525631168E+03  0.00000000000E+00 0.  1.
        6    1    1    2  501    0 -0.13426779058E+02 -0.20084282594E+03  0.11638774817E+04  0.11937578949E+04  0.17300000000E+03 0. -1.
       -6    1    1    2    0  503  0.98601981489E+02  0.98784210213E+02  0.94146677834E+03  0.96735172800E+03  0.17300000000E+03 0. -1.
        6    1    1    2  502    0 -0.45369474320E+02 -0.10511874691E+03 -0.50362901925E+03  0.54468296208E+03  0.17300000000E+03 0.  1.
       -6    1    1    2    0  504 -0.39805728111E+02  0.20717736264E+03 -0.33465779535E+03  0.43177748386E+03  0.17300000000E+03 0.  1.
</event>
<event>
 6   0  0.4500850E-05  0.2266124E+03  0.7546771E-02  0.1136891E+00
       21   -1    0    0  501  503  0.00000000000E+00  0.00000000000E+00  0.52429192403E+03  0.52429192403E+03  0.00000000000E+00 0.  1.
       21   -1    0    0  502  504  0.00000000000E+00  0.00000000000E+00 -0.74865097550E+03  0.74865097550E+03  0.00000000000E+00 0.  1.
        6    1    1    2  501    0 -0.47415310317E+02 -0.55152757444E+02  0.18712055498E+02  0.18859793034E+03  0.17300000000E+03 0.  1.
       -6    1    1    2    0  503 -0.50334712593E+02 -0.50426798227E+02 -0.38256360122E+03  0.42586424392E+03  0.17300000000E+03 0.  1.
        6    1    1    2  502    0  0.10564142191E+03 -0.55271489873E+02 -0.16915040390E+03  0.26973302867E+03  0.17300000000E+03 0. -1.
       -6    1    1    2    0  504 -0.78913989969E+01  0.16085104554E+03  0.30864289816E+03  0.38874769660E+03  0.17300000000E+03 0.  1.
</event>
<event>
 6   0  0.4500850E-05  0.2904802E+03  0.7546771E-02  0.1104067E+00
       21   -1    0    0  501  503  0.00000000000E+00  0.00000000000E+00  0.32447225980E+04  0.32447225980E+04  0.00000000000E+00 0. -1.
       21   -1    0    0  502  504  0.00000000000E+00  0.00000000000E+00 -0.18925415173E+03  0.18925415173E+03  0.00000000000E+00 0. -1.
        6    1    1    2  501    0  0.16886935658E+03  0.11144275470E+03  0.88741975184E+03  0.92648754072E+03  0.17300000000E+03 0.  1.
       -6    1    1    2    0  504  0.21664104450E+03 -0.13683613022E+03  0.80352138910E+02  0.31944159861E+03  0.17300000000E+03 0. -1.
        6    1    1    2  502    0  0.27854256344E+01  0.72585144313E+02  0.33546726462E+03  0.38437435841E+03  0.17300000000E+03 0.  1.
       -6    1    1    2    0  503 -0.38829582671E+03 -0.47191768796E+02  0.17522292909E+04  0.18036732520E+04  0.17300000000E+03 0. -1.
</event>
<event>
 6   0  0.4500850E-05  0.2780113E+03  0.7546771E-02  0.1103147E+00
       21   -1    0    0  501  503  0.00000000000E+00  0.00000000000E+00  0.10524921957E+04  0.10524921957E+04  0.00000000000E+00 0. -1.
       21   -1    0    0  502  504  0.00000000000E+00  0.00000000000E+00 -0.40761540027E+03  0.40761540027E+03  0.00000000000E+00 0. -1.
        6    1    1    2  501    0  0.11609286280E+03 -0.28026559721E+03 -0.63599894490E+02  0.35496521569E+03  0.17300000000E+03 0. -1.
       -6    1    1    2    0  504  0.10796553890E+03 -0.96718290177E+02  0.19005839760E+03  0.29506300979E+03  0.17300000000E+03 0. -1.
        6    1    1    2  502    0 -0.24270245346E+03  0.14928186278E+03  0.31514793486E+03  0.45873388398E+03  0.17300000000E+03 0.  1.
       -6    1    1    2    0  503  0.18644051762E+02  0.22770202461E+03  0.20327035751E+03  0.35134548655E+03  0.17300000000E+03 0. -1.
</event>
<event>
 6   0  0.4500850E-05  0.5928359E+03  0.7546771E-02  0.9920382E-01
        4   -1    0    0  503    0  0.00000000000E+00  0.00000000000E+00  0.39290513730E+03  0.39290513730E+03  0.00000000000E+00 0.  1.
       -4   -1    0    0    0  501  0.00000000000E+00  0.00000000000E+00 -0.10114926940E+04  0.10114926940E+04  0.00000000000E+00 0. -1.
        6    1    1    2  502    0  0.10097870401E+03  0.21696450998E+03 -0.13292064933E+03  0.32383204948E+03  0.17300000000E+03 0.  1.
       -6    1    1    2    0  502 -0.29199552622E+03 -0.24060129700E+03 -0.20709568451E+03  0.46472356729E+03  0.17300000000E+03 0. -1.
        6    1    1    2  503    0  0.15980314622E+03  0.10928594686E+03 -0.32389391590E+03  0.41511050635E+03  0.17300000000E+03 0.  1.
       -6    1    1    2    0  501  0.31213675991E+02 -0.85649159836E+02  0.45322693068E+02  0.20073170815E+03  0.17300000000E+03 0. -1.
</event>
<event>
 6   0  0.4500850E-05  0.9610689E+03  0.7546771E-02  0.9427185E-01
        1   -1    0    0  502    0  0.00000000000E+00  0.00000000000E+00  0.15867976640E+04  0.15867976640E+04  0.00000000000E+00 0.  1.
       -1   -1    0    0    0  501  0.00000000000E+00  0.00000000000E+00 -0.10000794755E+04  0.10000794755E+04  0.00000000000E+00 0. -1.
        6    1    1    2  502    0  0.29856172318E+03  0.15355671292E+03  0.41353144866E+03  0.56005002068E+03  0.17300000000E+03 0.  1.
       -6    1    1    2    0  501 -0.39588934232E+03 -0.38280168409E+03 -0.15164079386E+03  0.59681607809E+03  0.17300000000E+03 0.  1.
        6    1    1    2  503    0 -0.14452176495E+03  0.14603557519E+03 -0.48991924845E+03  0.55871531192E+03  0.17300000000E+03 0. -1.
       -6    1    1    2    0  503  0.24184938409E+03  0.83209395981E+02  0.81474678210E+03  0.87129572885E+03  0.17300000000E+03 0.  1.
</event>
<event>
 6   0  0.4500850E-05  0.2035811E+03  0.7546771E-02  0.1153137E+00
       21   -1    0    0  502  503  0.00000000000E+00  0.00000000000E+00  0.27094780394E+03  0.27094780394E+03  0.00000000000E+00 0. -1.
       21   -1    0    0  501  504  0.00000000000E+00  0.00000000000E+00 -0.76315983529E+03  0.76315983529E+03  0.00000000000E+00 0. -1.
        6    1    1    2  501    0 -0.97687294848E+02 -0.54957418496E+02  0.48883173615E+02  0.21185299168E+03  0.17300000000E+03 0. -1.
       -6    1    1    2    0  504  0.95488324770E+01  0.29514509683E+02 -0.12500333572E+03  0.21567827991E+03  0.17300000000E+03 0. -1.
        6    1    1    2  502    0  0.90925960509E+02 -0.85255678778E+02 -0.30761118202E+03  0.37428558664E+03  0.17300000000E+03 0.  1.
       -6    1    1    2    0  503 -0.27874981377E+01  0.11069858759E+03 -0.10848068723E+03  0.23229078101E+03  0.17300000000E+03 0. -1.
</event>
<event>
 6   0  0.4500850E-05  0.3322255E+03  0.7546771E-02  0.1071429E+00
       21   -1    0    0  504  503  0.00000000000E+00  0.00000000000E+00  0.20741672566E+04  0.20741672566E+04  0.00000000000E+00 0. -1.
       21   -1    0    0  501  504  0.00000000000E+00  0.00000000000E+00 -0.88484469079E+03  0.88484469079E+03  0.00000000000E+00 0.  1.
        6    1    1    2  501    0 -0.15614211652E+03  0.19278976837E+02 -0.50503133841E+03  0.55654082714E+03  0.17300000000E+03 0.  1.
       -6    1    1    2    0  503  0.11337764082E+03  0.13960859765E+03  0.27335878913E+03  0.37013386440E+03  0.17300000000E+03 0.  1.
        6    1    1    2  502    0  0.11157246270E+02  0.28866257410E+03  0.15067257661E+04  0.15438918680E+04  0.17300000000E+03 0. -1.
       -6    1    1    2    0  502  0.31607229424E+02 -0.44755014859E+03 -0.85730650962E+02  0.48844538791E+03  0.17300000000E+03 0. -1.
</event>
<event>
 6   0  0.4500850E-05  0.9560916E+03  0.7546771E-02  0.9568096E-01
       21   -1    0    0  501  503  0.00000000000E+00  0.00000000000E+00  0.23833526896E+04  0.23833526896E+04  0.00000000000E+00 0. -1.
       21   -1    0    0  502  504  0.00000000000E+00  0.00000000000E+00 -0.16727562443E+04  0.16727562443E+04  0.00000000000E+00 0. -1.
        6    1    1    2  501    0  0.41799837298E+03 -0.55497123886E+02 -0.20870262243E+03  0.50128669959E+03  0.17300000000E+03 0.  1.
       -6    1    1    2    0  504  0.11436809323E+03 -0.55930368665E+03 -0.11336159822E+04  0.12809819943E+04  0.17300000000E+03 0. -1.
        6    1    1    2  502    0 -0.21549690267E+03  0.37973002382E+03  0.62142609855E+03  0.77893080695E+03  0.17300000000E+03 0.  1.
       -6    1    1    2    0  503 -0.31686956354E+03  0.23507078671E+03  0.14314889514E+04  0.14949094331E+04  0.17300000000E+03 0. -1.
</event>
<event>
 6   0  0.4500850E-05  0.5538633E+03  0.7546771E-02  0.1008110E+00
        3   -1    0    0  502    0  0.00000000000E+00  0.00000000000E+00  0.17279974206E+04  0.17279974206E+04  0.00000000000E+00 0.  1.
       -3   -1    0    0    0  501  0.00000000000E+00  0.00000000000E+00 -0.16348397462E+03  0.16348397462E+03  0.00000000000E+00 0. -1.
        6    1    1    2  502    0 -0.66191133059E+02 -0.19426961729E+02  0.15492178670E+03  0.24225695642E+03  0.17300000000E+03 0. -1.
       -6    1    1    2    0  501 -0.10840234228E+03 -0.14746098773E+03  0.20987580523E+03  0.32783023706E+03  0.17300000000E+03 0. -1.
        6    1    1    2  503    0  0.22785436742E+03 -0.11417824897E+02  0.77846087408E+03  0.82944458040E+03  0.17300000000E+03 0.  1.
       -6    1    1    2    0  503 -0.53260892081E+02  0.17830577435E+03  0.42125497998E+03  0.49194962135E+03  0.17300000000E+03 0. -1.
</event>
<event>
 6   0  0.4500850E-05  0.2959749E+03  0.7546771E-02  0.1093339E+00
       21   -1    0    0  502  503  0.00000000000E+00  0.00000000000E+00  0.18590241311E+04  0.18590241311E+04  0.00000000000E+00 0. -1.
       21   -1    0    0  501  504  0.00000000000E+00  0.00000000000E+00 -0.28097541013E+03  0.28097541013E+03  0.00000000000E+00 0.  1.
        6    1    1    2  501    0  0.27703954738E+03 -0.28393763190E+02  0.21555941574E+02  0.32855863285E+03  0.17300000000E+03 0.  1.
       -6    1    1    2    0  503 -0.43090998260E+02  0.84989595391E+02  0.73604817448E+03  0.76208659653E+03  0.17300000000E+03 0. -1.
        6    1    1    2  502    0 -0.34839485281E+03 -0.14312611762E+03  0.41956863617E+03  0.58977190461E+03  0.17300000000E+03 0.  1.
       -6    1    1    2    0  504  0.11444630369E+03  0.86530285418E+02  0.40087596872E+03  0.45958240721E+03  0.17300000000E+03 0. -1.
</event>
<event>
 6   0  0.4500850E-05  0.3049573E+03  0.7546771E-02  0.1101409E+00
       21   -1    0    0  501  503  0.00000000000E+00  0.00000000000E+00  0.21656919167E+04  0.21656919167E+04  0.00000000000E+00 0.  1.
       21   -1    0    0  502  504  0.00000000000E+00  0.00000000000E+00 -0.36501873459E+03  0.36501873459E+03  0.00000000000E+00 0. -1.
        6    1    1    2  501    0 -0.68960172951E+02  0.13925221294E+02  0.13627710306E+04  0.13755083784E+04  0.17300000000E+03 0.  1.
       -6    1    1    2    0  503 -0.16746164094E+03 -0.24324125333E+03  0.27620908004E+02  0.34336805773E+03  0.17300000000E+03 0.  1.
        6    1    1    2  502    0  0.19905718096E+03  0.12013141535E+03 -0.61498949578E+02  0.29625401102E+03  0.17300000000E+03 0. -1.
       -6    1    1    2    0  504  0.37364632939E+02  0.10918461669E+03  0.47178019310E+03  0.51558020415E+03  0.17300000000E+03 0. -1.
</event>
<event>
 6   0  0.4500850E-05  0.4742784E+03  0.7546771E-02  0.1020720E+00
        3   -1    0    0  503    0  0.00000000000E+00  0.00000000000E+00  0.86324426200E+03  0.86324426200E+03  0.00000000000E+00 0.  1.
       -3   -1    0    0    0  501  0.00000000000E+00  0.00000000000E+00 -0.31671529380E+03  0.31671529380E+03  0.00000000000E+00 0. -1.
        6    1    1    2  502    0 -0.27626426906E+03  0.58688927561E+02  0.32894085257E+03  0.46679483830E+03  0.17300000000E+03 0. -1.
       -6    1    1    2    0  501 -0.22640193871E+02 -0.63082947735E+02  0.37701150720E+02  0.18932092710E+03  0.17300000000E+03 0.  1.
        6    1    1    2  503    0  0.17558446134E+03 -0.85702362607E+02  0.87076850695E+02  0.27511120651E+03  0.17300000000E+03 0. -1.
       -6    1    1    2    0  502  0.12332000159E+03  0.90096382782E+02  0.92810114220E+02  0.24873258388E+03  0.17300000000E+03 0. -1.
</event>
<event>
 6   0  0.4500850E-05  0.5355686E+03  0.7546771E-02  0.1032759E+00
       21   -1    0    0  504  503  0.00000000000E+00  0.00000000000E+00  0.88952324029E+03  0.88952324029E+03  0.00000000000E+00 0.  1.
       21   -1    0    0  501  504  0.00000000000E+00  0.00000000000E+00 -0.10714975887E+04  0.10714975887E+04  0.00000000000E+00 0.  1.
        6    1    1    2  501    0  0.84759208555E+01  0.41294978783E+03 -0.74109911203E+03  0.86588467035E+03  0.17300000000E+03 0.  1.
       -6    1    1    2    0  502  0.16694965057E+00 -0.63625954078E+02 -0.32915201901E+02  0.18724502776E+03  0.17300000000E+03 0.  1.
        6    1    1    2  502    0 -0.72885237703E+02 -0.41316472554E+03  0.26090587290E+03  0.52346749929E+03  0.17300000000E+03 0.  1.
       -6    1    1    2    0  503  0.64242367197E+02  0.63840891780E+02  0.33113409263E+03  0.38442363157E+03  0.17300000000E+03 0.  1.
</event>
<event>
 6   0  0.4500850E-05  0.6917736E+03  0.7546771E-02  0.9783908E-01
       21   -1    0    0  501  503  0.00000000000E+00  0.00000000000E+00  0.18827601382E+04  0.18827601382E+04  0.00000000000E+00 0. -1.
       21   -1    0    0  503  504  0.00000000000E+00  0.00000000000E+00 -0.19451988518E+04  0.19451988518E+04  0.00000000000E+00 0.  1.
        6    1    1    2  501    0 -0.88486096792E+02 -0.54788007557E+03  0.92754785456E+03  0.10946581151E+04  0.17300000000E+03 0. -1.
       -6    1    1    2    0  504 -0.20600008754E+03 -0.19126983116E+03 -0.67197544247E+03  0.74866559935E+03  0.17300000000E+03 0.  1.
        6    1    1    2  502    0 -0.24489462246E+03 -0.14163668794E+03 -0.77431255988E+03  0.84233204134E+03  0.17300000000E+03 0.  1.
       -6    1    1    2    0  502  0.53938080679E+03  0.88078659467E+03  0.45630143419E+03  0.11423032342E+04  0.17300000000E+03 0.  1.
</event>
<event>
 6   0  0.4500850E-05  0.2557814E+03  0.7546771E-02  0.1116828E+00
       21   -1    0    0  502  503  0.00000000000E+00  0.00000000000E+00  0.40555357283E+03  0.40555357283E+03  0.00000000000E+00 0.  1.
       21   -1    0    0  503  504  0.00000000000E+00  0.00000000000E+00 -0.11423442409E+04  0.11423442409E+04  0.00000000000E+00 0.  1.
        6    1    1    2  501    0 -0.42972252762E+02  0.11763000927E+03 -0.26139722494E+03  0.33755139282E+03  0.17300000000E+03 0.  1.
       -6    1    1    2    0  501 -0.12340948761E+03  0.25137695231E+02 -0.10308489855E+03  0.23752326552E+03  0.17300000000E+03 0. -1.
        6    1    1    2  502    0  0.99174989567E+01 -0.20189658150E+03  0.21245654490E+03  0.34048108593E+03  0.17300000000E+03 0.  1.
       -6    1    1    2    0  504  0.15646424142E+03  0.59128877001E+02 -0.58476508950E+03  0.63234206948E+03  0.17300000000E+03 0.  1.
</event>
<event>
 6   0  0.4500850E-05  0.7092603E+03  0.7546771E-02  0.9701526E-01
       -2   -1    0    0    0  501  0.00000000000E+00  0.00000000000E+00  0.75689474783E+03  0.75689474783E+03  0.00000000000E+00 0. -1.
        2   -1    0    0  503    0  0.00000000000E+00  0.00000000000E+00 -0.10571320793E+04  0.10571320793E+04  0.00000000000E+00 0.  1.
        6    1    1    2  502    0  0.37069618841E+03  0.57841784067E+02  0.24455213886E+03  0.48010007780E+03  0.17300000000E+03 0. -1.
       -6    1    1    2    0  501 -0.10000440350E+03  0.12562514088E+03 -0.62514403104E+03  0.66821898827E+03  0.17300000000E+03 0.  1.
        6    1    1    2  503    0  0.12816027870E+02  0.11850488907E+03  0.49055825761E+02  0.21573857639E+03  0.17300000000E+03 0.  1.
       -6    1    1    2    0  502 -0.28350781277E+03 -0.30197181402E+03  0.31298734920E+02  0.44996918469E+03  0.17300000000E+03 0. -1.
</event>
<event>
 6   0  0.4500850E-05  0.2972946E+03  0.7546771E-02  0.1088517E+00
       21   -1    0    0  504  503  0.00000000000E+00  0.00000000000E+00  0.23255822092E+04  0.23255822092E+04  0.00000000000E+00 0.  1.
       21   -1    0    0  501  504  0.00000000000E+00  0.00000000000E+00 -0.38728464431E+03  0.38728464431E+03  0.00000000000E+00 0. -1.
        6    1    1    2  501    0 -0.18677334557E+03  0.14266371758E+03 -0.11926418275E+03  0.31526205642E+03  0.17300000000E+03 0. -1.
       -6    1    1    2    0  502  0.20142894796E+02  0.31491094746E+03  0.29517053718E+03  0.46543451426E+03  0.17300000000E+03 0.  1.
        6    1    1    2  502    0  0.11132080249E+03 -0.23202797314E+03  0.26762472778E+03  0.40961115257E+03  0.17300000000E+03 0. -1.
       -6    1    1    2    0  503  0.55309648282E+02 -0.22554669190E+03  0.14947664826E+04  0.15225591302E+04  0.17300000000E+03 0.  1.
</event>
<event>
 6   0  0.4500850E-05  0.2518457E+03  0.7546771E-02  0.1124986E+00
       21   -1    0    0  502  503  0.00000000000E+00  0.00000000000E+00  0.51570948170E+03  0.51570948170E+03  0.00000000000E+00 0.  1.
       21   -1    0    0  501  504  0.00000000000E+00  0.00000000000E+00 -0.62692263926E+03  0.62692263926E+03  0.00000000000E+00 0. -1.
        6    1    1    2  501    0 -0.10254298848E+02 -0.57222694690E+02  0.65337324150E+02  0.19384930580E+03  0.17300000000E+03 0.  1.
       -6    1    1    2    0  503  0.13609583677E+03 -0.44737931520E+02  0.19886547970E+03  0.30000006386E+03  0.17300000000E+03 0.  1.
        6    1    1    2  502    0 -0.43665814278E+02  0.23357462649E+03 -0.24263465184E+03  0.38113565006E+03  0.17300000000E+03 0.  1.
       -6    1    1    2    0  504 -0.82175723640E+02 -0.13161400028E+03 -0.13278130957E+03  0.26764710123E+03  0.17300000000E+03 0. -1.
</event>
<event>
 6   0  0.4500850E-05  0.8751181E+03  0.7546771E-02  0.9622085E-01
       -2   -1    0    0    0  501  0.00000000000E+00  0.00000000000E+00  0.26579865226E+04  0.26579865226E+04  0.00000000000E+00 0. -1.
        2   -1    0    0  503    0  0.00000000000E+00  0.00000000000E+00 -0.26963975104E+03  0.26963975104E+03  0.00000000000E+00 0.  1.
        6    1    1    2  502    0  0.10916817935E+03  0.29687490296E+03  0.33787193287E+03  0.49410408055E+03  0.17300000000E+03 0.  1.
       -6    1    1    2    0  501 -0.16430187071E+02  0.11228396692E+02  0.19128854249E+04  0.19207955843E+04  0.17300000000E+03 0. -1.
        6    1    1    2  503    0 -0.17920019214E+02 -0.18303321547E+03  0.13541287456E+03  0.28650991545E+03  0.17300000000E+03 0.  1.
       -6    1    1    2    0  502 -0.74817973063E+02 -0.12507008418E+03  0.21765393100E+01  0.22621669340E+03  0.17300000000E+03 0.  1.
</event>
<event>
 6   0  0.4500850E-05  0.4102924E+03  0.7546771E-02  0.1046613E+00
       21   -1    0    0  502  503  0.00000000000E+00  0.00000000000E+00  0.10128372517E+04  0.10128372517E+04  0.00000000000E+00 0. -1.
       21   -1    0    0  501  504  0.00000000000E+00  0.00000000000E+00 -0.14894807977E+04  0.14894807977E+04  0.00000000000E+00 0.  1.
        6    1    1    2  501    0  0.29091315192E+03  0.26592452125E+03 -0.35995611087E+01  0.43045123975E+03  0.17300000000E+03 0.  1.
       -6    1    1    2    0  503  0.13408228858E+03  0.15632639662E+03  0.55193367739E+03  0.61398353938E+03  0.17300000000E+03 0. -1.
        6    1    1    2  502    0 -0.17100096652E+03 -0.54491147520E+03 -0.94471064099E+03  0.11173974412E+04  0.17300000000E+03 0.  1.
       -6    1    1    2    0  504 -0.25399447398E+03  0.12266055734E+03 -0.80267021311E+02  0.34048582914E+03  0.17300000000E+03 0. -1.
</event>
<event>
 6   0  0.4500850E-05  0.2914553E+03  0.7546771E-02  0.1090845E+00
       21   -1    0    0  502  503  0.00000000000E+00  0.00000000000E+00  0.84693460341E+03  0.84693460341E+03  0.00000000000E+00 0.  1.
       21   -1    0    0  503  504  0.00000000000E+00  0.00000000000E+00 -0.59724024781E+03  0.59724024781E+03  0.00000000000E+00 0.  1.
        6    1    1    2  501    0  0.10338366222E+03 -0.77263947152E+02  0.28999435340E+03  0.36150190062E+03  0.17300000000E+03 0.  1.
       -6    1    1    2    0  501  0.78370188493E+02  0.34517578485E+03 -0.20258601123E+03  0.44301049744E+03  0.17300000000E+03 0.  1.
        6    1    1    2  502    0 -0.89773777388E+02  0.60857891954E+02 -0.38008981940E+02  0.20769375732E+03  0.17300000000E+03 0. -1.
       -6    1    1    2    0  504 -0.91980073321E+02 -0.32876972966E+03  0.20029499537E+03  0.43196869585E+03  0.17300000000E+03 0.  1.
</event>
<event>
 6   0  0.4500850E-05  0.4063849E+03  0.7546771E-02  0.1068152E+00
       21   -1    0    0  502  503  0.00000000000E+00  0.00000000000E+00  0.67975353692E+03  0.67975353692E+03  0.00000000000E+00 0.  1.
       21   -1    0    0  501  504  0.00000000000E+00  0.00000000000E+00 -0.54670309547E+03  0.54670309547E+03  0.00000000000E+00 0.  1.
        6    1    1    2  501    0  0.77136996112E+02  0.30162755038E+02 -0.26067375195E+03  0.32363515402E+03  0.17300000000E+03 0. -1.
       -6    1    1    2    0  504 -0.80544680576E+02  0.10899099606E+03  0.22106643631E+03  0.31171437575E+03  0.17300000000E+03 0.  1.
        6    1    1    2  502    0 -0.70112117712E+02  0.21348747602E+02  0.26705083792E+03  0.32652201780E+03  0.17300000000E+03 0.  1.
       -6    1    1    2    0  503  0.73519802177E+02 -0.16050249870E+03 -0.94393080818E+02  0.26458508481E+03  0.17300000000E+03 0.  1.
</event>
<event>
 6   0  0.4500850E-05  0.1909374E+03  0.7546771E-02  0.1158763E+00
       21   -1    0    0  502  503  0.00000000000E+00  0.00000000000E+00  0.25005761306E+03  0.25005761306E+03  0.00000000000E+00 0.  1.
       21   -1    0    0  501  504  0.00000000000E+00  0.00000000000E+00 -0.65578408270E+03  0.65578408270E+03  0.00000000000E+00 0.  1.
        6    1    1    2  501    0  0.10289802126E+03  0.48850797304E+02 -0.16828336696E+02  0.20781384961E+03  0.17300000000E+03 0.  1.
       -6    1    1    2    0  504  0.16022994178E+02 -0.53122516999E+02 -0.13528886331E+03  0.22651890581E+03  0.17300000000E+03 0. -1.
        6    1    1    2  502    0 -0.78975858746E+02  0.40903453173E+02 -0.54040225888E+02  0.20189013042E+03  0.17300000000E+03 0.  1.
       -6    1    1    2    0  503 -0.39945156687E+02 -0.36631733478E+02 -0.19956904375E+03  0.26961880992E+03  0.17300000000E+03 0.  1.
</event>
<event>
 6   0  0.4500850E-05  0.4208725E+03  0.7546771E-02  0.1055226E+00
       21   -1    0    0  501  503  0.00000000000E+00  0.00000000000E+00  0.79715774399E+03  0.79715774399E+03  0.00000000000E+00 0.  1.
       21   -1    0    0  502  504  0.00000000000E+00  0.00000000000E+00 -0.91721491883E+03  0.91721491883E+03  0.00000000000E+00 0.  1.
        6    1    1    2  501    0  0.79738501456E+02 -0.64366974597E+02 -0.29482956286E+03  0.35686805288E+03  0.17300000000E+03 0.  1.
       -6    1    1    2    0  504  0.26981208553E+03 -0.10267972472E+03 -0.27980913139E+03  0.43768006281E+03  0.17300000000E+03 0.  1.
        6    1    1    2  502    0 -0.11432696944E+03 -0.29133522160E+02 -0.12351276059E+03  0.24311277236E+03  0.17300000000E+03 0.  1.
       -6    1    1    2    0  503 -0.23522361755E+03  0.19618022148E+03  0.57809428000E+03  0.67671177477E+03  0.17300000000E+03 0.  1.
</event>
<event>
 6   0  0.4500850E-05  0.3614448E+03  0.7546771E-02  0.1074305E+00
       21   -1    0    0  501  503  0.00000000000E+00  0.00000000000E+00  0.14490839510E+04  0.14490839510E+04  0.00000000000E+00 0.  1.
       21   -1    0    0  503  504  0.00000000000E+00  0.00000000000E+00 -0.36091646385E+03  0.36091646385E+03  0.00000000000E+00 0. -1.
        6    1    1    2  501    0 -0.17872771463E+03  0.41694984654E+03  0.57703528443E+03  0.75411503763E+03  0.17300000000E+03 0.  1.
       -6    1    1    2    0  502  0.45715166470E+02 -0.17322449505E+03 -0.13219372214E+02  0.24939998783E+03  0.17300000000E+03 0. -1.
        6    1    1    2  502    0 -0.10234173071E+03 -0.11246765321E+03  0.52514812294E+02  0.23624057309E+03  0.17300000000E+03 0. -1.
       -6    1    1    2    0  504  0.23535427887E+03 -0.13125769828E+03  0.47183676262E+03  0.57024481628E+03  0.17300000000E+03 0. -1.
</event>
<event>
 6   0  0.4500850E-05  0.2894469E+03  0.7546771E-02  0.1106390E+00
       21   -1    0    0  501  503  0.00000000000E+00  0.00000000000E+00  0.10766249683E+04  0.10766249683E+04  0.00000000000E+00 0.  1.
       21   -1    0    0  503  504  0.00000000000E+00  0.00000000000E+00 -0.30509226553E+03  0.30509226553E+03  0.00000000000E+00 0. -1.
        6    1    1    2  501    0 -0.24255629167E+01 -0.24763980180E+03  0.56660770806E+03  0.64210953086E+03  0.17300000000E+03 0.  1.
       -6    1    1    2    0  502  0.37542861840E+01  0.20244525818E+03  0.17599355449E+03  0.31921921692E+03  0.17300000000E+03 0. -1.
        6    1    1    2  502    0  0.15401240524E+02 -0.82122465429E+02 -0.35794048926E+02  0.19542648612E+03  0.17300000000E+03 0. -1.
       -6    1    1    2    0  504 -0.16729963791E+02  0.12731700905E+03  0.64725489183E+02  0.22496199997E+03  0.17300000000E+03 0. -1.
</event>
<event>
 6   0  0.4500850E-05  0.2996267E+03  0.7546771E-02  0.1095431E+00
       21   -1    0    0  501  503  0.00000000000E+00  0.00000000000E+00  0.97579053665E+03  0.97579053665E+03  0.00000000000E+00 0.  1.
       21   -1    0    0  502  504  0.00000000000E+00  0.00000000000E+00 -0.51064375129E+03  0.51064375129E+03  0.00000000000E+00 0. -1.
        6    1    1    2  501    0  0.10293695478E+03 -0.18612847936E+03 -0.11239698152E+03  0.29631386897E+03  0.17300000000E+03 0. -1.
       -6    1    1    2    0  504  0.94672588871E+02  0.27665208239E+02  0.61337832901E+02  0.20837368494E+03  0.17300000000E+03 0.  1.
        6    1    1    2  502    0 -0.30002901170E+03  0.31952182936E+03  0.84064805041E+02  0.47865175101E+03  0.17300000000E+03 0.  1.
       -6    1    1    2    0  503  0.10241946805E+03 -0.16105855824E+03  0.43214112893E+03  0.50309498301E+03  0.17300000000E+03 0.  1.
</event>
<event>
 6   0  0.4500850E-05  0.2050347E+03  0.7546771E-02  0.1152712E+00
       21   -1    0    0  502  503  0.00000000000E+00  0.00000000000E+00  0.22969955467E+03  0.22969955467E+03  0.00000000000E+00 0.  1.
       21   -1    0    0  501  504  0.00000000000E+00  0.00000000000E+00 -0.77006311570E+03  0.77006311570E+03  0.00000000000E+00 0. -1.
        6    1    1    2  501    0  0.14978686744E+01 -0.26156712052E+01 -0.64315538677E+02  0.18459299516E+03  0.17300000000E+03 0.  1.
       -6    1    1    2    0  503 -0.30117703044E+02 -0.44712691066E+01 -0.11037102001E+02  0.17600535760E+03  0.17300000000E+03 0. -1.
        6    1    1    2  502    0 -0.33069294170E+02 -0.92008470251E+02 -0.10940776696E+03  0.22684399107E+03  0.17300000000E+03 0.  1.
       -6    1    1    2    0  504  0.61689128540E+02  0.99095410563E+02 -0.35560315338E+03  0.41232032653E+03  0.17300000000E+03 0. -1.
</event>
<event>
 6   0  0.4500850E-05  0.2485061E+03  0.7546771E-02  0.1118268E+00
       21   -1    0    0  501  503  0.00000000000E+00  0.00000000000E+00  0.80720950416E+03  0.80720950416E+03  0.00000000000E+00 0.  1.
       21   -1    0    0  502  504  0.00000000000E+00  0.00000000000E+00 -0.48599218258E+03  0.48599218258E+03  0.00000000000E+00 0. -1.
        6    1    1    2  501    0  0.13196634026E+03 -0.15005454683E+03  0.29031603130E+03  0.39261161473E+03  0.17300000000E+03 0. -1.
       -6    1    1    2    0  503  0.90952109286E+02 -0.13272913350E+02  0.45877884518E+02  0.20120197986E+03  0.17300000000E+03 0.  1.
        6    1    1    2  502    0 -0.10676932391E+03 -0.86776167449E+02  0.20903418142E+03  0.30422702176E+03  0.17300000000E+03 0. -1.
       -6    1    1    2    0  504 -0.11614912564E+03  0.25010362763E+03 -0.22401077567E+03  0.39516107039E+03  0.17300000000E+03 0. -1.
</event>
<event>
 6   0  0.4500850E-05  0.2777645E+03  0.7546771E-02  0.1099971E+00
       21   -1    0    0  502  503  0.00000000000E+00  0.00000000000E+00  0.19556369987E+04  0.19556369987E+04  0.00000000000E+00 0.  1.
       21   -1    0    0  501  504  0.00000000000E+00  0.00000000000E+00 -0.24687851375E+03  0.24687851375E+03  0.00000000000E+00 0. -1.
        6    1    1    2  501    0 -0.11602722027E+03  0.11561917278E+03  0.52992997281E+02  0.24406426760E+03  0.17300000000E+03 0. -1.
       -6    1    1    2    0  503  0.38428580706E+03 -0.52359567080E+02  0.31238303761E+03  0.52718997331E+03  0.17300000000E+03 0.  1.
        6    1    1    2  502    0 -0.13117497987E+03 -0.13522716234E+03  0.59370981099E+03  0.64646237357E+03  0.17300000000E+03 0.  1.
       -6    1    1    2    0  504 -0.13708360692E+03  0.71967556642E+02  0.74967263907E+03  0.78479889798E+03  0.17300000000E+03 0. -1.
</event>
<event>
 6   0  0.4500850E-05  0.6543486E+03  0.7546771E-02  0.1002448E+00
       21   -1    0    0  502  503  0.00000000000E+00  0.00000000000E+00  0.65768132331E+03  0.65768132331E+03  0.00000000000E+00 0. -1.
       21   -1    0    0  501  504  0.00000000000E+00  0.00000000000E+00 -0.27031639342E+04  0.27031639342E+04  0.00000000000E+00 0. -1.
        6    1    1    2  501    0 -0.42427235212E+03  0.34133847214E+03 -0.30526501168E+03  0.64779218018E+03  0.17300000000E+03 0.  1.
       -6    1    1    2    0  503 -0.13405708850E+03 -0.22928122757E+03 -0.19748863734E+04  0.20001615865E+04  0.17300000000E+03 0. -1.
        6    1    1    2  502    0  0.28825154132E+03 -0.10742371793E+02  0.10429236028E+03  0.35215088533E+03  0.17300000000E+03 0. -1.
       -6    1    1    2    0  504  0.27007789930E+03 -0.10131487278E+03  0.13037641392E+03  0.36074060548E+03  0.17300000000E+03 0. -1.
</event>
<event>
 6   0  0.4500850E-05  0.2770009E+03  0.7546771E-02  0.1103585E+00
       21   -1    0    0  501  503  0.00000000000E+00  0.00000000000E+00  0.17451747067E+04  0.17451747067E+04  0.00000000000E+00 0.  1.
       21   -1    0    0  503  504  0.00000000000E+00  0.00000000000E+00 -0.77566417398E+03  0.77566417398E+03  0.00000000000E+00 0.  1.
        6    1    1    2  501    0  0.41413959995E+02 -0.79182967452E+02  0.79936114335E+03  0.82273464489E+03  0.17300000000E+03 0.  1.
       -6    1    1    2    0  502  0.12951672412E+03  0.31104172497E+03  0.61174351269E+03  0.71950028618E+03  0.17300000000E+03 0.  1.
        6    1    1    2  502    0 -0.26145996505E+03 -0.11488864189E+03  0.13388890940E+03  0.35974428893E+03  0.17300000000E+03 0. -1.
       -6    1    1    2    0  504  0.90529280937E+02 -0.11697011563E+03 -0.57548303272E+03  0.61885966067E+03  0.17300000000E+03 0.  1.
</event>
<event>
 6   0  0.4500850E-05  0.3247744E+03  0.7546771E-02  0.1073473E+00
        4   -1    0    0  503    0  0.00000000000E+00  0.00000000000E+00  0.89888091509E+03  0.89888091509E+03  0.00000000000E+00 0. -1.
       -4   -1    0    0    0  501  0.00000000000E+00  0.00000000000E+00 -0.24265364459E+03  0.24265364459E+03  0.00000000000E+00 0.  1.
        6    1    1    2  502    0 -0.24324972748E+02  0.70427904293E+02  0.53690705781E+03  0.56899031866E+03  0.17300000000E+03 0. -1.
       -6    1    1    2    0  501 -0.46315245493E+02 -0.52887495183E+02  0.52884772922E+01  0.18681316095E+03  0.17300000000E+03 0.  1.
        6    1    1    2  503    0  0.57388004223E+02 -0.14424867115E+01  0.10694903335E+03  0.21133518290E+03  0.17300000000E+03 0.  1.
       -6    1    1    2    0  502  0.13252214018E+02 -0.16097922398E+02  0.70827020432E+01  0.17439589717E+03  0.17300000000E+03 0.  1.
</event>
<event>
 6   0  0.4500850E-05  0.1890295E+03  0.7546771E-02  0.1159461E+00
       21   -1    0    0  502  503  0.00000000000E+00  0.00000000000E+00  0.64363570382E+03  0.64363570382E+03  0.00000000000E+00 0.  1.
       21   -1    0    0  501  504  0.00000000000E+00  0.00000000000E+00 -0.35855622059E+03  0.35855622059E+03  0.00000000000E+00 0.  1.
        6    1    1    2  501    0 -0.56731586724E+02  0.38146967269E+02 -0.14225379570E+03  0.23417686998E+03  0.17300000000E+03 0.  1.
       -6    1    1    2    0  503 -0.48832013598E+02 -0.12707057930E+02  0.23381259812E+02  0.18171878875E+03  0.17300000000E+03 0.  1.
        6    1    1    2  502    0  0.11964063214E+02  0.46958886965E+02  0.71659974377E+02  0.19342292470E+03  0.17300000000E+03 0. -1.
       -6    1    1    2    0  504  0.93599537108E+02 -0.72398796304E+02  0.33229204474E+03  0.39287334098E+03  0.17300000000E+03 0.  1.
</event>
<event>
 6   0  0.4500850E-05  0.5854171E+03  0.7546771E-02  0.9945666E-01
       -1   -1    0    0    0  501  0.00000000000E+00  0.00000000000E+00  0.11623461729E+04  0.11623461729E+04  0.00000000000E+00 0.  1.
        1   -1    0    0  502    0  0.00000000000E+00  0.00000000000E+00 -0.30024550194E+03  0.30024550194E+03  0.00000000000E+00 0. -1.
        6    1    1    2  502    0 -0.18839060295E+03 -0.14521550605E+03  0.42000831616E+03  0.51275193624E+03  0.17300000000E+03 0.  1.
       -6    1    1    2    0  501  0.18472995853E+03 -0.14138410170E+02  0.18540015724E+03  0.31404978988E+03  0.17300000000E+03 0.  1.
        6    1    1    2  503    0  0.18473881623E+03  0.19744765472E+03  0.93064050442E+02  0.33422136985E+03  0.17300000000E+03 0. -1.
       -6    1    1    2    0  503 -0.18107817181E+03 -0.38093738507E+02  0.16362814708E+03  0.30156857883E+03  0.17300000000E+03 0. -1.
</event>
<event>
 6   0  0.4500850E-05  0.4394238E+03  0.7546771E-02  0.1049145E+00
       21   -1    0    0  501  503  0.00000000000E+00  0.00000000000E+00  0.18623032967E+04  0.18623032967E+04  0.00000000000E+00 0. -1.
       21   -1    0    0  502  504  0.00000000000E+00  0.00000000000E+00 -0.47212626497E+03  0.47212626497E+03  0.00000000000E+00 0. -1.
        6    1    1    2  501    0 -0.53395604195E+02 -0.14281421612E+03 -0.46983326096E+02  0.23533683053E+03  0.17300000000E+03 0. -1.
       -6    1    1    2    0  504 -0.31452744437E+03 -0.28777137467E+03  0.23423584748E+03  0.51627057788E+03  0.17300000000E+03 0. -1.
        6    1    1    2  502    0  0.33549150187E+03 -0.10246344917E+03  0.21442713587E+03  0.44605078505E+03  0.17300000000E+03 0.  1.
       -6    1    1    2    0  503  0.32431546694E+02  0.53304903996E+03  0.98849737450E+03  0.11367713682E+04  0.17300000000E+03 0. -1.
</event>
<event>
 6   0  0.4500850E-05  0.2292356E+03  0.7546771E-02  0.1129569E+00
       21   -1    0    0  501  503  0.00000000000E+00  0.00000000000E+00  0.70664067967E+03  0.70664067967E+03  0.00000000000E+00 0. -1.
       21   -1    0    0  502  504  0.00000000000E+00  0.00000000000E+00 -0.41393455579E+03  0.41393455579E+03  0.00000000000E+00 0.  1.
        6    1    1    2  501    0  0.20602112009E+03  0.21228740748E+02  0.19289679127E+03  0.33171302874E+03  0.17300000000E+03 0. -1.
       -6    1    1    2    0  504  0.73681747930E+02 -0.13015234270E+03 -0.72728266833E+02  0.23997298407E+03  0.17300000000E+03 0.  1.
        6    1    1    2  502    0 -0.14514011824E+03  0.10931440410E+02  0.20677212055E+03  0.30638025417E+03  0.17300000000E+03 0. -1.
       -6    1    1    2    0  503 -0.13456274978E+03  0.97992161543E+02 -0.34234521104E+02  0.24250896847E+03  0.17300000000E+03 0. -1.
</event>
<event>
 6   0  0.4500850E-05  0.3169237E+03  0.7546771E-02  0.1091532E+00
       21   -1    0    0  501  503  0.00000000000E+00  0.00000000000E+00  0.98037120400E+03  0.98037120400E+03  0.00000000000E+00 0. -1.
       21   -1    0    0  502  504  0.00000000000E+00  0.00000000000E+00 -0.72408040413E+03  0.72408040413E+03  0.00000000000E+00 0.  1.
        6    1    1    2  501    0 -0.24478351263E+03  0.77252661290E+02  0.62979371897E+03  0.70175214298E+03  0.17300000000E+03 0. -1.
       -6    1    1    2    0  504 -0.13111912522E+03  0.88616228726E+02  0.34848463098E+02  0.23704108583E+03  0.17300000000E+03 0.  1.
        6    1    1    2  502    0 -0.34731716024E+01 -0.12822206748E+03 -0.67198183830E+02  0.22560487011E+03  0.17300000000E+03 0.  1.
       -6    1    1    2    0  503  0.37937580945E+03 -0.37646822537E+02 -0.34115319838E+03  0.54005350920E+03  0.17300000000E+03 0.  1.
</event>
<event>
 6   0  0.4500850E-05  0.2456656E+03  0.7546771E-02  0.1121691E+00
       21   -1    0    0  502  503  0.00000000000E+00  0.00000000000E+00  0.45325547866E+03  0.45325547866E+03  0.00000000000E+00 0.  1.
       21   -1    0    0  503  504  0.00000000000E+00  0.00000000000E+00 -0.10473273368E+04  0.10473273368E+04  0.00000000000E+00 0. -1.
        6    1    1    2  501    0 -0.81534822047E+02 -0.63344915975E+02 -0.54906975969E+03  0.58486503280E+03  0.17300000000E+03 0. -1.
       -6    1    1    2    0  501  0.47358087383E+01 -0.14248818500E+03  0.54326596780E+02  0.23066358591E+03  0.17300000000E+03 0. -1.
        6    1    1    2  502    0 -0.15771970510E+03  0.44656261310E+02  0.13866481518E+03  0.27572924767E+03  0.17300000000E+03 0.  1.
       -6    1    1    2    0  504  0.23451871841E+03  0.16117683966E+03 -0.23799351038E+03  0.40932494905E+03  0.17300000000E+03 0. -1.
</event>
<event>
 6   0  0.4500850E-05  0.6056543E+03  0.7546771E-02  0.9893744E-01
       -2   -1    0    0    0  501  0.00000000000E+00  0.00000000000E+00  0.17837435041E+03  0.17837435041E+03  0.00000000000E+00 0. -1.
        2   -1    0    0  503    0  0.00000000000E+00  0.00000000000E+00 -0.24307375279E+04  0.24307375279E+04  0.00000000000E+00 0.  1.
        6    1    1    2  502    0  0.22806305292E+03 -0.77766365536E+02 -0.21491345009E+03  0.36630199937E+03  0.17300000000E+03 0.  1.
       -6    1    1    2    0  501 -0.38104540681E+02 -0.22036727790E+03 -0.50979793862E+03  0.58295508525E+03  0.17300000000E+03 0. -1.
        6    1    1    2  503    0 -0.26322867667E+03  0.32405345456E+03 -0.11844823361E+04  0.12677647187E+04  0.17300000000E+03 0.  1.
       -6    1    1    2    0  502  0.73270164428E+02 -0.25919811122E+02 -0.34316945271E+03  0.39209007495E+03  0.17300000000E+03 0. -1.
</event>
<event>
 6   0  0.4500850E-05  0.2430718E+03  0.7546771E-02  0.1126540E+00
       21   -1    0    0  502  503  0.00000000000E+00  0.00000000000E+00  0.18235783711E+04  0.18235783711E+04  0.00000000000E+00 0. -1.
       21   -1    0    0  503  504  0.00000000000E+00  0.00000000000E+00 -0.27148151309E+03  0.27148151309E+03  0.00000000000E+00 0. -1.
        6    1    1    2  501    0 -0.81378534506E+02  0.40038714887E+02  0.14308635972E+02  0.19585530790E+03  0.17300000000E+03 0.  1.
       -6    1    1    2    0  501 -0.14580381852E+03  0.15031192685E+03  0.37890921971E+03  0.46621199644E+03  0.17300000000E+03 0. -1.
        6    1    1    2  502    0  0.93945362409E+02 -0.13055581797E+03  0.11820399335E+04  0.12054119450E+04  0.17300000000E+03 0. -1.
       -6    1    1    2    0  504  0.13323699061E+03 -0.59794823760E+02 -0.23160931212E+02  0.22758063483E+03  0.17300000000E+03 0. -1.
</event>
<event>
 6   0  0.4500850E-05  0.1958274E+03  0.7546771E-02  0.1153596E+00
       21   -1    0    0  504  503  0.00000000000E+00  0.00000000000E+00  0.59250234521E+03  0.59250234521E+03  0.00000000000E+00 0. -1.
       21   -1    0    0  501  504  0.00000000000E+00  0.00000000000E+00 -0.21021682062E+04  0.21021682062E+04  0.00000000000E+00 0. -1.
        6    1    1    2  501    0  0.15127951727E+02  0.40753281168E+02 -0.12063644637E+04  0.12194809979E+04  0.17300000000E+03 0. -1.
       -6    1    1    2    0  503  0.10005593603E+03  0.10688505522E+02 -0.26602184788E+03  0.33289947136E+03  0.17300000000E+03 0.  1.
        6    1    1    2  502    0  0.14835939227E+02  0.45082626199E+02  0.51283721084E+03  0.54330797261E+03  0.17300000000E+03 0. -1.
       -6    1    1    2    0  502 -0.13001982699E+03 -0.96524412888E+02 -0.55011676021E+03  0.59898210954E+03  0.17300000000E+03 0. -1.
</event>
<event>
 6   0  0.4500850E-05  0.2258290E+03  0.7546771E-02  0.1136881E+00
       21   -1    0    0  501  503  0.00000000000E+00  0.00000000000E+00  0.11584981779E+04  0.11584981779E+04  0.00000000000E+00 0.  1.
       21   -1    0    0  502  504  0.00000000000E+00  0.00000000000E+00 -0.78721170700E+03  0.78721170700E+03  0.00000000000E+00 0. -1.
        6    1    1    2  501    0  0.67295252692E+02 -0.11489738531E+03 -0.31261594819E+03  0.38129751015E+03  0.17300000000E+03 0. -1.
       -6    1    1    2    0  503  0.11013820176E+03  0.59524723713E+02  0.96884466842E+03  0.99210009966E+03  0.17300000000E+03 0.  1.
        6    1    1    2  502    0 -0.22417908721E+03  0.50542526334E+02 -0.77020800737E+02  0.29777846439E+03  0.17300000000E+03 0. -1.
       -6    1    1    2    0  504  0.46745632756E+02  0.48301352635E+01 -0.20792144864E+03  0.27453381065E+03  0.17300000000E+03 0. -1.
</event>
<event>
 6   0  0.4500850E-05  0.6641962E+03  0.7546771E-02  0.9781266E-01
       21   -1    0    0  502  503  0.00000000000E+00  0.00000000000E+00  0.30721439096E+03  0.30721439096E+03  0.00000000000E+00 0.  1.
       21   -1    0    0  501  504  0.00000000000E+00  0.00000000000E+00 -0.14411265077E+04  0.14411265077E+04  0.00000000000E+00 0. -1.
        6    1    1    2  501    0 -0.18739133465E+03 -0.26365411177E+03 -0.43904485819E+03  0.57211746212E+03  0.17300000000E+03 0.  1.
       -6    1    1    2    0  503 -0.13448040699E+03 -0.18417007138E+03 -0.19677272799E+03  0.34735011377E+03  0.17300000000E+03 0.  1.
        6    1    1    2  502    0  0.10307717752E+03  0.22055419056E+03 -0.18056047295E+03  0.34899876775E+03  0.17300000000E+03 0. -1.
       -6    1    1    2    0  504  0.21879456411E+03  0.22726999260E+03 -0.31753405761E+03  0.47987455503E+03  0.17300000000E+03 0. -1.
</event>
<event>
 6   0  0.4500850E-05  0.2076067E+03  0.7546771E-02  0.1148716E+00
       21   -1    0    0  504  503  0.00000000000E+00  0.00000000000E+00  0.17838925992E+04  0.17838925992E+04  0.00000000000E+00 0. -1.
       21   -1    0    0  502  504  0.00000000000E+00  0.00000000000E+00 -0.33250819060E+03  0.33250819060E+03  0.00000000000E+00 0. -1.
        6    1    1    2  501    0 -0.85777469373E+02 -0.13830071924E+03  0.75621532021E+03  0.79263829942E+03  0.17300000000E+03 0.  1.
       -6    1    1    2    0  503  0.54474849782E+02  0.25830469819E+02  0.79213133964E+03  0.81304107010E+03  0.17300000000E+03 0. -1.
        6    1    1    2  502    0 -0.84319052371E+02  0.95672854053E+02 -0.18555717334E+03  0.28394270932E+03  0.17300000000E+03 0. -1.
       -6    1    1    2    0  501  0.11562167196E+03  0.16797395364E+02  0.88594922071E+02  0.22677871094E+03  0.17300000000E+03 0. -1.
</event>
<event>
 6   0  0.4500850E-05  0.5851281E+03  0.7546771E-02  0.9954422E-01
       21   -1    0    0  502  503  0.00000000000E+00  0.00000000000E+00  0.16505554010E+04  0.16505554010E+04  0.00000000000E+00 0.  1.
       21   -1    0    0  501  504  0.00000000000E+00  0.00000000000E+00 -0.21644027268E+03  0.21644027268E+03  0.00000000000E+00 0.  1.
        6    1    1    2  501    0 -0.12370756594E+03 -0.15478379052E+03  0.36629886529E+03  0.45096057742E+03  0.17300000000E+03 0.  1.
       -6    1    1    2    0  503 -0.18497549885E+03 -0.11726627057E+03  0.61763604968E+03  0.67776884205E+03  0.17300000000E+03 0.  1.
        6    1    1    2  502    0  0.11944539809E+03  0.20073872140E+02  0.24832778859E+03  0.32598443836E+03  0.17300000000E+03 0.  1.
       -6    1    1    2    0  504  0.18923766670E+03  0.25197618895E+03  0.20185242478E+03  0.41228181586E+03  0.17300000000E+03 0. -1.
</event>
<event>
 6   0  0.4500850E-05  0.7014235E+03  0.7546771E-02  0.9714801E-01
       -2   -1    0    0    0  501  0.00000000000E+00  0.00000000000E+00  0.16305437473E+04  0.16305437473E+04  0.00000000000E+00 0. -1.
        2   -1    0    0  503    0  0.00000000000E+00  0.00000000000E+00 -0.68656523280E+03  0.68656523280E+03  0.00000000000E+00 0.  1.
        6    1    1    2  502    0  0.10567678090E+03  0.17727604747E+03 -0.24138459861E+03  0.36164886765E+03  0.17300000000E+03 0.  1.
       -6    1    1    2    0  502 -0.23857644529E+03  0.34609462887E+03  0.11308152212E+04  0.12187584981E+04  0.17300000000E+03 0. -1.
        6    1    1    2  503    0  0.35654115632E+02 -0.40723789403E+03  0.17497240000E+03  0.47713547244E+03  0.17300000000E+03 0.  1.
       -6    1    1    2    0  501  0.97245548761E+02 -0.11613278231E+03 -0.12042450802E+03  0.25956614189E+03  0.17300000000E+03 0.  1.
</event>
<event>
 6   0  0.4500850E-05  0.3863949E+03  0.7546771E-02  0.1064586E+00
       21   -1    0    0  504  503  0.00000000000E+00  0.00000000000E+00  0.16218408256E+04  0.16218408256E+04  0.00000000000E+00 0. -1.
       21   -1    0    0  501  504  0.00000000000E+00  0.00000000000E+00 -0.89768452224E+03  0.89768452224E+03  0.00000000000E+00 0.  1.
        6    1    1    2  501    0  0.64321278142E+02 -0.11142464780E+03 -0.41584600138E+03  0.46841175884E+03  0.17300000000E+03 0.  1.
       -6    1    1    2    0  503  0.27768385808E+03 -0.66399403609E+02  0.10251840436E+04  0.10781690633E+04  0.17300000000E+03 0.  1.
        6    1    1    2  502    0  0.15165680519E+03  0.34448448761E+03  0.86697116327E+02  0.42321949239E+03  0.17300000000E+03 0. -1.
       -6    1    1    2    0  502 -0.49366194142E+03 -0.16666043620E+03  0.28121144774E+02  0.54972503325E+03  0.17300000000E+03 0.  1.
</event>
<event>
 6   0  0.4500850E-05  0.2164004E+03  0.7546771E-02  0.1139250E+00
       21   -1    0    0  502  503  0.00000000000E+00  0.00000000000E+00  0.63509120749E+03  0.63509120749E+03  0.00000000000E+00 0.  1.
       21   -1    0    0  503  504  0.00000000000E+00  0.00000000000E+00 -0.30347774260E+03  0.30347774260E+03  0.00000000000E+00 0. -1.
        6    1    1    2  501    0  0.42924953981E+02  0.26527219136E+02  0.46770818573E+02  0.18617936110E+03  0.17300000000E+03 0.  1.
       -6    1    1    2    0  501  0.15626351151E+03 -0.74786622363E+02  0.96198845423E+02  0.26304855403E+03  0.17300000000E+03 0. -1.
        6    1    1    2  502    0 -0.18715718848E+03 -0.29340596693E+02  0.72230876345E+02  0.26652388882E+03  0.17300000000E+03 0. -1.
       -6    1    1    2    0  504 -0.12031277014E+02  0.77599999920E+02  0.11641292456E+03  0.22281714615E+03  0.17300000000E+03 0. -1.
</event>
<event>
 6   0  0.4500850E-05  0.2227414E+03  0.7546771E-02  0.1139873E+00
       21   -1    0    0  504  503  0.00000000000E+00  0.00000000000E+00  0.37221808309E+03  0.37221808309E+03  0.00000000000E+00 0.  1.
       21   -1    0    0  501  504  0.00000000000E+00  0.00000000000E+00 -0.16939590584E+04  0.16939590584E+04  0.00000000000E+00 0.  1.
        6    1    1    2  501    0  0.79404455058E+02  0.15082286481E+03 -0.19473302959E+03  0.31129175519E+03  0.17300000000E+03 0. -1.
       -6    1    1    2    0  503 -0.16900625917E+03 -0.62697457742E+02  0.13824542763E+03  0.28554314053E+03  0.17300000000E+03 0.  1.
        6    1    1    2  502    0  0.17323280450E+02  0.98841008498E+01  0.12120290529E+02  0.17456715882E+03  0.17300000000E+03 0.  1.
       -6    1    1    2    0  502  0.72278523660E+02 -0.98009507917E+02 -0.12773736639E+04  0.12947750870E+04  0.17300000000E+03 0.  1.
</event>
<event>
 6   0  0.4500850E-05  0.2857046E+03  0.7546771E-02  0.1111454E+00
       21   -1    0    0  502  503  0.00000000000E+00  0.00000000000E+00  0.10934678138E+04  0.10934678138E+04  0.00000000000E+00 0.  1.
       21   -1    0    0  501  504  0.00000000000E+00  0.00000000000E+00 -0.45808142164E+03  0.45808142164E+03  0.00000000000E+00 0. -1.
        6    1    1    2  501    0 -0.10255707694E+03 -0.25378770214E+02  0.68690465434E+02  0.21403134362E+03  0.17300000000E+03 0. -1.
       -6    1    1    2    0  503  0.59993991415E+01  0.29182615675E+02 -0.89735552286E+02  0.19715244658E+03  0.17300000000E+03 0.  1.
        6    1    1    2  502    0 -0.92093005924E+02 -0.20344037821E+03  0.75090784168E+03  0.80228467262E+03  0.17300000000E+03 0.  1.
       -6    1    1    2    0  504  0.18865068373E+03  0.19963653275E+03 -0.94476362702E+02  0.33808077258E+03  0.17300000000E+03 0. -1.
</event>
<event>
 6   0  0.4500850E-05  0.3151144E+03  0.7546771E-02  0.1079451E+00
       21   -1    0    0  502  503  0.00000000000E+00  0.00000000000E+00  0.19740468927E+04  0.19740468927E+04  0.00000000000E+00 0.  1.
       21   -1    0    0  501  504  0.00000000000E+00  0.00000000000E+00 -0.56186328129E+03  0.56186328129E+03  0.00000000000E+00 0. -1.
        6    1    1    2  501    0  0.65749846367E+02 -0.17078088785E+03 -0.13357885076E+03  0.28506396357E+03  0.17300000000E+03 0. -1.
       -6    1    1    2    0  504 -0.81012028459E+02 -0.26775426213E+03  0.81522975863E+02  0.33886618191E+03  0.17300000000E+03 0. -1.
        6    1    1    2  502    0  0.20468338142E+03  0.36988898183E+03  0.34816717798E+02  0.45809862404E+03  0.17300000000E+03 0. -1.
       -6    1    1    2    0  503 -0.18942119933E+03  0.68646168160E+02  0.14294227685E+04  0.14538814045E+04  0.17300000000E+03 0.  1.
</event>
<event>
 6   0  0.4500850E-05  0.2731295E+03  0.7546771E-02  0.1103717E+00
       21   -1    0    0  502  503  0.00000000000E+00  0.00000000000E+00  0.22977573233E+04  0.22977573233E+04  0.00000000000E+00 0.  1.
       21   -1    0    0  501  504  0.00000000000E+00  0.00000000000E+00 -0.26489482976E+03  0.26489482976E+03  0.00000000000E+00 0.  1.
        6    1    1    2  501    0  0.24478710734E+02 -0.92082160668E+02  0.76532386522E+02  0.21181250619E+03  0.17300000000E+03 0. -1.
       -6    1    1    2    0  504 -0.37756806598E+03  0.45905959188E+02  0.50449484840E+03  0.65506415991E+03  0.17300000000E+03 0.  1.
        6    1    1    2  502    0  0.23410050911E+03  0.10663278115E+03  0.99028984084E+02  0.32543714918E+03  0.17300000000E+03 0.  1.
       -6    1    1    2    0  503  0.11898884614E+03 -0.60456579673E+02  0.13528062745E+04  0.13703383378E+04  0.17300000000E+03 0.  1.
</event>
<event>
 6   0  0.4500850E-05  0.3055417E+03  0.7546771E-02  0.1099827E+00
       21   -1    0    0  502  503  0.00000000000E+00  0.00000000000E+00  0.82498176683E+03  0.82498176683E+03  0.00000000000E+00 0. -1.
       21   -1    0    0  501  504  0.00000000000E+00  0.00000000000E+00 -0.57374456309E+03  0.57374456309E+03  0.00000000000E+00 0. -1.
        6    1    1    2  501    0  0.23970970570E+03  0.23577916472E+02  0.68229350760E+02  0.30430396885E+03  0.17300000000E+03 0. -1.
       -6    1    1    2    0  503 -0.18189399993E+03 -0.23320370753E+03  0.35896977270E+03  0.49624358346E+03  0.17300000000E+03 0. -1.
        6    1    1    2  502    0  0.52418928410E+02 -0.75042964051E+02 -0.14952395381E+03  0.24630388400E+03  0.17300000000E+03 0.  1.
       -6    1    1    2    0  504 -0.11023463418E+03  0.28466875511E+03 -0.26437965919E+02  0.35187489361E+03  0.17300000000E+03 0. -1.
</event>
<event>
 6   0  0.4500850E-05  0.2871250E+03  0.7546771E-02  0.1100714E+00
       21   -1    0    0  501  503  0.00000000000E+00  0.00000000000E+00  0.13431735269E+03  0.13431735269E+03  0.00000000000E+00 0.  1.
       21   -1    0    0  502  504  0.00000000000E+00  0.00000000000E+00 -0.23816292303E+04  0.23816292303E+04  0.00000000000E+00 0. -1.
        6    1    1    2  501    0  0.15600488152E+03 -0.17704799001E+02 -0.80082003916E+03  0.83420184493E+03  0.17300000000E+03 0.  1.
       -6    1    1    2    0  503 -0.85832634879E+02  0.12086480137E+03 -0.46178249261E+03  0.51492486044E+03  0.17300000000E+03 0.  1.
        6    1    1    2  502    0 -0.19628303195E+03 -0.24392654192E+03 -0.68294427691E+03  0.77095335258E+03  0.17300000000E+03 0. -1.
       -6    1    1    2    0  504  0.12611078531E+03  0.14076653954E+03 -0.30176506899E+03  0.39586652509E+03  0.17300000000E+03 0.  1.
</event>
<event>
 6   0  0.4500850E-05  0.2826473E+03  0.7546771E-02  0.1109300E+00
       21   -1    0    0  501  503  0.00000000000E+00  0.00000000000E+00  0.78650226678E+03  0.78650226678E+03  0.00000000000E+00 0.  1.
       21   -1    0    0  502  504  0.00000000000E+00  0.00000000000E+00 -0.84692580620E+03  0.84692580620E+03  0.00000000000E+00 0. -1.
        6    1    1    2  501    0  0.84388624400E+02  0.83192659871E+02 -0.74061467499E+01  0.20982447330E+03  0.17300000000E+03 0. -1.
       -6    1    1    2    0  503 -0.82913441139E+02 -0.22234625538E+03  0.51472987820E+03  0.59261146084E+03  0.17300000000E+03 0.  1.
        6    1    1    2  502    0  0.78256368144E+02  0.15901481459E+03 -0.17405808257E+02  0.24827753135E+03  0.17300000000E+03 0. -1.
       -6    1    1    2    0  504 -0.79731551405E+02 -0.19861219077E+02 -0.55034146262E+03  0.58271460750E+03  0.17300000000E+03 0. -1.
</event>
<event>
 6   0  0.4500850E-05  0.4475023E+03  0.7546771E-02  0.1056446E+00
       21   -1    0    0  502  503  0.00000000000E+00  0.00000000000E+00  0.22327889249E+04  0.22327889249E+04  0.00000000000E+00 0. -1.
       21   -1    0    0  501  504  0.00000000000E+00  0.00000000000E+00 -0.18549725198E+03  0.18549725198E+03  0.00000000000E+00 0. -1.
        6    1    1    2  501    0 -0.30449273456E+02  0.42940139630E+02  0.19104927128E+03  0.26305862066E+03  0.17300000000E+03 0. -1.
       -6    1    1    2    0  503 -0.16412505815E+03  0.93196653685E+02  0.57836794472E+02  0.26248189607E+03  0.17300000000E+03 0.  1.
        6    1    1    2  502    0  0.16762649091E+02 -0.96977992818E+02  0.14480655671E+04  0.14616800622E+04  0.17300000000E+03 0. -1.
       -6    1    1    2    0  504  0.17781168252E+03 -0.39158800497E+02  0.35034004002E+03  0.43106559795E+03  0.17300000000E+03 0. -1.
</event>
<event>
 6   0  0.4500850E-05  0.2665817E+03  0.7546771E-02  0.1112884E+00
       21   -1    0    0  504  503  0.00000000000E+00  0.00000000000E+00  0.35934029825E+04  0.35934029825E+04  0.00000000000E+00 0. -1.
       21   -1    0    0  501  504  0.00000000000E+00  0.00000000000E+00 -0.10404739310E+04  0.10404739310E+04  0.00000000000E+00 0. -1.
        6    1    1    2  501    0 -0.13529134244E+03 -0.11540799453E+03 -0.52857030766E+03  0.58389924018E+03  0.17300000000E+03 0. -1.
       -6    1    1    2    0  502  0.83774511502E+02  0.28804365726E+03 -0.33450322645E+03  0.48146518645E+03  0.17300000000E+03 0. -1.
        6    1    1    2  502    0  0.16126300944E+03 -0.13447385094E+03  0.18092370374E+03  0.32672826841E+03  0.17300000000E+03 0. -1.
       -6    1    1    2    0  503 -0.10974617850E+03 -0.38161811786E+02  0.32350788819E+04  0.32417842185E+04  0.17300000000E+03 0. -1.
</event>
<event>
 6   0  0.4500850E-05  0.4226328E+03  0.7546771E-02  0.1044627E+00
       21   -1    0    0  502  503  0.00000000000E+00  0.00000000000E+00  0.59702226516E+03  0.59702226516E+03  0.00000000000E+00 0. -1.
       21   -1    0    0  501  504  0.00000000000E+00  0.00000000000E+00 -0.27039092960E+04  0.27039092960E+04  0.00000000000E+00 0.  1.
        6    1    1    2  501    0 -0.68627192148E+03 -0.35774242064E+03 -0.55387591085E+01  0.79303749444E+03  0.17300000000E+03 0. -1.
       -6    1    1    2    0  503  0.13940806809E+03  0.12432645926E+03 -0.18029765401E+03  0.31197423285E+03  0.17300000000E+03 0. -1.
        6    1    1    2  502    0  0.44421665953E+03  0.17996216966E+03 -0.19213586897E+04  0.19877784176E+04  0.17300000000E+03 0.  1.
       -6    1    1    2    0  504  0.10264719386E+03  0.53453791719E+02  0.30807194150E+00  0.20814141627E+03  0.17300000000E+03 0. -1.
</event>
<event>
 6   0  0.4500850E-05  0.4508683E+03  0.7546771E-02  0.1048118E+00
       21   -1    0    0  502  503  0.00000000000E+00  0.00000000000E+00  0.24903548574E+03  0.24903548574E+03  0.00000000000E+00 0.  1.
       21   -1    0    0  501  504  0.00000000000E+00  0.00000000000E+00 -0.14704092681E+04  0.14704092681E+04  0.00000000000E+00 0.  1.
        6    1    1    2  501    0 -0.12504665193E+03  0.56564474717E+02 -0.21249478719E+03  0.30646246025E+03  0.17300000000E+03 0.  1.
       -6    1    1    2    0  503 -0.19753391550E+03 -0.43191974957E+02 -0.17230751870E+03  0.31702377746E+03  0.17300000000E+03 0.  1.
        6    1    1    2  502    0 -0.27319454487E+02  0.12744147552E+03 -0.75990386491E+02  0.22954568416E+03  0.17300000000E+03 0.  1.
       -6    1    1    2    0  504  0.34990002192E+03 -0.14081397528E+03 -0.76058109001E+03  0.86641283200E+03  0.17300000000E+03 0.  1.
</event>
<event>
 6   0  0.4500850E-05  0.4036363E+03  0.7546771E-02  0.1064393E+00
       21   -1    0    0  502  503  0.00000000000E+00  0.00000000000E+00  0.44472504065E+03  0.44472504065E+03  0.00000000000E+00 0. -1.
       21   -1    0    0  501  504  0.00000000000E+00  0.00000000000E+00 -0.67569828249E+03  0.67569828249E+03  0.00000000000E+00 0. -1.
        6    1    1    2  501    0 -0.15231128349E+02  0.67282044274E+02 -0.23470730115E+03  0.29962539607E+03  0.17300000000E+03 0.  1.
       -6    1    1    2    0  503 -0.28118913442E+03  0.58962102708E+02  0.96655299761E+01  0.33550898846E+03  0.17300000000E+03 0. -1.
        6    1    1    2  502    0  0.83698613275E+02 -0.42664326443E+02 -0.22629193627E+02  0.19815847955E+03  0.17300000000E+03 0. -1.
       -6    1    1    2    0  504  0.21272164949E+03 -0.83579820540E+02  0.16697722963E+02  0.28713045905E+03  0.17300000000E+03 0. -1.
</event>
<event>
 6   0  0.4500850E-05  0.4671600E+03  0.7546771E-02  0.1038620E+00
       21   -1    0    0  504  503  0.00000000000E+00  0.00000000000E+00  0.39704227632E+03  0.39704227632E+03  0.00000000000E+00 0.  1.
       21   -1    0    0  502  504  0.00000000000E+00  0.00000000000E+00 -0.19864062064E+04  0.19864062064E+04  0.00000000000E+00 0.  1.
        6    1    1    2  501    0  0.66336664927E+01  0.32577498037E+03 -0.14816346386E+03  0.39756100838E+03  0.17300000000E+03 0. -1.
       -6    1    1    2    0  501 -0.80592524080E+02  0.12796173917E+03 -0.12544603918E+03  0.26179203650E+03  0.17300000000E+03 0.  1.
        6    1    1    2  502    0  0.19048898762E+03 -0.30700816221E+03 -0.13994765793E+04  0.14556798281E+04  0.17300000000E+03 0.  1.
       -6    1    1    2    0  503 -0.11653013004E+03 -0.14672855733E+03  0.83722152260E+02  0.26841560968E+03  0.17300000000E+03 0.  1.
</event>
<event>
 6   0  0.4500850E-05  0.2221012E+03  0.7546771E-02  0.1133975E+00
       21   -1    0    0  502  503  0.00000000000E+00  0.00000000000E+00  0.37916748726E+03  0.37916748726E+03  0.00000000000E+00 0.  1.
       21   -1    0    0  501  504  0.00000000000E+00  0.00000000000E+00 -0.15496469456E+04  0.15496469456E+04  0.00000000000E+00 0. -1.
        6    1    1    2  501    0 -0.16670953320E+03 -0.84413047145E+01 -0.67849130644E+03  0.71982135075E+03  0.17300000000E+03 0. -1.
       -6    1    1    2    0  503  0.10896460534E+03 -0.67677354819E+02 -0.65000566545E+03  0.68475533929E+03  0.17300000000E+03 0. -1.
        6    1    1    2  502    0  0.85658268052E+02 -0.90804909237E+02 -0.33062742023E+02  0.21588194769E+03  0.17300000000E+03 0. -1.
       -6    1    1    2    0  504 -0.27913340186E+02  0.16692356877E+03  0.19108025553E+03  0.30835579518E+03  0.17300000000E+03 0.  1.
</event>
<event>
 6   0  0.4500850E-05  0.3495454E+03  0.7546771E-02  0.1068031E+00
       21   -1    0    0  504  503  0.00000000000E+00  0.00000000000E+00  0.11104035494E+04  0.11104035494E+04  0.00000000000E+00 0. -1.
       21   -1    0    0  501  504  0.00000000000E+00  0.00000000000E+00 -0.34634135006E+04  0.34634135006E+04  0.00000000000E+00 0.  1.
        6    1    1    2  501    0  0.14430959717E+03 -0.20174895319E+03 -0.19448798086E+04  0.19682516023E+04  0.17300000000E+03 0.  1.
       -6    1    1    2    0  503  0.14408784325E+03 -0.26436359801E+03  0.92376603713E+03  0.98687492109E+03  0.17300000000E+03 0. -1.
        6    1    1    2  502    0  0.27584650688E+02  0.46364502436E+03 -0.10505399404E+04  0.11615897675E+04  0.17300000000E+03 0.  1.
       -6    1    1    2    0  502 -0.31598209110E+03  0.24675268413E+01 -0.28135623932E+03  0.45710075913E+03  0.17300000000E+03 0.  1.
</event>
<event>
 6   0  0.4500850E-05  0.3379826E+03  0.7546771E-02  0.1083110E+00
       21   -1    0    0  504  503  0.00000000000E+00  0.00000000000E+00  0.41415095698E+03  0.41415095698E+03  0.00000000000E+00 0. -1.
       21   -1    0    0  501  504  0.00000000000E+00  0.00000000000E+00 -0.12235844180E+04  0.12235844180E+04  0.00000000000E+00 0. -1.
        6    1    1    2  501    0  0.22527763883E+03 -0.77502088878E+01 -0.43237265328E+03  0.51738302214E+03  0.17300000000E+03 0.  1.
       -6    1    1    2    0  502 -0.55509566878E+02  0.38996705606E+03 -0.18133535240E+03  0.46686949661E+03  0.17300000000E+03 0. -1.
        6    1    1    2  502    0 -0.11728135239E+03 -0.35355163843E+03 -0.22469953462E+03  0.46815868839E+03  0.17300000000E+03 0. -1.
       -6    1    1    2    0  503 -0.52486719562E+02 -0.28665208742E+02  0.28974079265E+02  0.18532416786E+03  0.17300000000E+03 0.  1.
</event>
<event>
 6   0  0.4500850E-05  0.2309624E+03  0.7546771E-02  0.1137166E+00
       21   -1    0    0  504  503  0.00000000000E+00  0.00000000000E+00  0.37610884494E+03  0.37610884494E+03  0.00000000000E+00 0.  1.
       21   -1    0    0  502  504  0.00000000000E+00  0.00000000000E+00 -0.88228603220E+03  0.88228603220E+03  0.00000000000E+00 0. -1.
        6    1    1    2  501    0 -0.29712688910E+02 -0.23727748835E+01 -0.13679448647E+03  0.22255382601E+03  0.17300000000E+03 0.  1.
       -6    1    1    2    0  501  0.70559005868E+02  0.81991074999E+02 -0.36658826048E+03  0.41954387424E+03  0.17300000000E+03 0. -1.
        6    1    1    2  502    0  0.11782540726E+03 -0.44866424827E+02 -0.21101978856E+03  0.30058971013E+03  0.17300000000E+03 0. -1.
       -6    1    1    2    0  503 -0.15867172422E+03 -0.34751875289E+02  0.20822534826E+03  0.31570746675E+03  0.17300000000E+03 0.  1.
</event>
<event>
 6   0  0.4500850E-05  0.7162791E+03  0.7546771E-02  0.1002897E+00
       21   -1    0    0  501  503  0.00000000000E+00  0.00000000000E+00  0.11417891820E+04  0.11417891820E+04  0.00000000000E+00 0. -1.
       21   -1    0    0  503  504  0.00000000000E+00  0.00000000000E+00 -0.12087199871E+04  0.12087199871E+04  0.00000000000E+00 0. -1.
        6    1    1    2  501    0 -0.35839484732E+03  0.47799831454E+03  0.22658602147E+03  0.66196637408E+03  0.17300000000E+03 0. -1.
       -6    1    1    2    0  504 -0.14093347276E+03  0.83586086256E+02 -0.19906777285E+03  0.31049292383E+03  0.17300000000E+03 0.  1.
        6    1    1    2  502    0  0.17266126093E+03  0.32934158924E+03 -0.36235215883E+02  0.41172780365E+03  0.17300000000E+03 0.  1.
       -6    1    1    2    0  502  0.32666705915E+03 -0.89092599004E+03 -0.58213837801E+02  0.96632206752E+03  0.17300000000E+03 0. -1.
</event>
<event>
 6   0  0.4500850E-05  0.7326324E+03  0.7546771E-02  0.1009428E+00
       21   -1    0    0  502  503  0.00000000000E+00  0.00000000000E+00  0.90519793524E+03  0.90519793524E+03  0.00000000000E+00 0. -1.
       21   -1    0    0  503  504  0.00000000000E+00  0.00000000000E+00 -0.11936874521E+04  0.11936874521E+04  0.00000000000E+00 0.  1.
        6    1    1    2  501    0 -0.65921808700E+02  0.57811033032E+03 -0.80068518000E+03  0.10047800736E+04  0.17300000000E+03 0.  1.
       -6    1    1    2    0  504 -0.44591125927E+02 -0.33208925477E+02 -0.31280137723E+02  0.18438722369E+03  0.17300000000E+03 0.  1.
        6    1    1    2  502    0  0.17235834282E+03 -0.15214027054E+03  0.15134694415E+03  0.32509838167E+03  0.17300000000E+03 0. -1.
       -6    1    1    2    0  501 -0.61845408189E+02 -0.39276113431E+03  0.39212885672E+03  0.58461970836E+03  0.17300000000E+03 0. -1.
</event>
<event>
 6   0  0.4500850E-05  0.2258943E+03  0.7546771E-02  0.1133875E+00
       21   -1    0    0  502  503  0.00000000000E+00  0.00000000000E+00  0.31869835778E+04  0.31869835778E+04  0.00000000000E+00 0. -1.
       21   -1    0    0  501  504  0.00000000000E+00  0.00000000000E+00 -0.75488188922E+03  0.75488188922E+03  0.00000000000E+00 0.  1.
        6    1    1    2  501    0  0.89775253957E+02  0.17525723038E+02 -0.57622801725E+03  0.60855112772E+03  0.17300000000E+03 0.  1.
       -6    1    1    2    0  504  0.11211027947E+03  0.54587428173E+02  0.86047718123E+03  0.88650915477E+03  0.17300000000E+03 0.  1.
        6    1    1    2  502    0 -0.13954336672E+03  0.10313977256E+03  0.21773307144E+04  0.21910746687E+04  0.17300000000E+03 0. -1.
       -6    1    1    2    0  503 -0.62342166708E+02 -0.17525292377E+03 -0.29478189842E+02  0.25573051581E+03  0.17300000000E+03 0.  1.
</event>
<event>
 6   0  0.4500850E-05  0.2715058E+03  0.7546771E-02  0.1113765E+00
       21   -1    0    0  502  503  0.00000000000E+00  0.00000000000E+00  0.10944522235E+04  0.10944522235E+04  0.00000000000E+00 0.  1.
       21   -1    0    0  501  504  0.00000000000E+00  0.00000000000E+00 -0.69400055029E+03  0.69400055029E+03  0.00000000000E+00 0.  1.
        6    1    1    2  501    0  0.48915796586E+02 -0.45447914027E+01 -0.48834373838E+03  0.52040562747E+03  0.17300000000E+03 0.  1.
       -6    1    1    2    0  504  0.14850397494E+03 -0.17246199795E+03  0.26986081345E+03  0.39312902456E+03  0.17300000000E+03 0.  1.
        6    1    1    2  502    0 -0.17964042432E+03 -0.91775882388E+02  0.14427211438E+03  0.30238541239E+03  0.17300000000E+03 0.  1.
       -6    1    1    2    0  503 -0.17779347204E+02  0.26878267174E+03  0.47466248377E+03  0.57253270938E+03  0.17300000000E+03 0.  1.
</event>
<event>
 6   0  0.4500850E-05  0.2256056E+03  0.7546771E-02  0.1134246E+00
       21   -1    0    0  502  503  0.00000000000E+00  0.00000000000E+00  0.13525637345E+04  0.13525637345E+04  0.00000000000E+00 0.  1.
       21   -1    0    0  501  504  0.00000000000E+00  0.00000000000E+00 -0.47994099570E+03  0.47994099570E+03  0.00000000000E+00 0. -1.
        6    1    1    2  501    0 -0.17477866084E+03  0.87565959608E+02  0.25913110111E+03  0.36782238259E+03  0.17300000000E+03 0. -1.
       -6    1    1    2    0  504 -0.61255584772E+02  0.16378285972E+02 -0.24461871784E+03  0.30624795842E+03  0.17300000000E+03 0. -1.
        6    1    1    2  502    0  0.10138761234E+03  0.51749501904E+02  0.86501648587E+03  0.88946049924E+03  0.17300000000E+03 0.  1.
       -6    1    1    2    0  503  0.13464663326E+03 -0.15569374748E+03 -0.69061303253E+01  0.26897388998E+03  0.17300000000E+03 0. -1.
</event>
<event>
 6   0  0.4500850E-05  0.6149630E+03  0.7546771E-02  0.9980450E-01
       21   -1    0    0  502  503  0.00000000000E+00  0.00000000000E+00  0.58068074210E+03  0.58068074210E+03  0.00000000000E+00 0. -1.
       21   -1    0    0  501  504  0.00000000000E+00  0.00000000000E+00 -0.17699560528E+04  0.17699560528E+04  0.00000000000E+00 0. -1.
        6    1    1    2  501    0 -0.38605444689E+03 -0.17137825359E+03 -0.43433855401E+03  0.63006945749E+03  0.17300000000E+03 0. -1.
       -6    1    1    2    0  503 -0.37310343595E+03  0.17692613286E+02  0.18542317863E+03  0.45147531235E+03  0.17300000000E+03 0. -1.
        6    1    1    2  502    0  0.29798557177E+03  0.42140532079E+02 -0.39190643474E+03  0.52353689365E+03  0.17300000000E+03 0. -1.
       -6    1    1    2    0  504  0.46117231107E+03  0.11154510822E+03 -0.54845350058E+03  0.74555513140E+03  0.17300000000E+03 0.  1.
</event>
<event>
 6   0  0.4500850E-05  0.2310899E+03  0.7546771E-02  0.1126882E+00
       21   -1    0    0  501  503  0.00000000000E+00  0.00000000000E+00  0.14751521256E+03  0.14751521256E+03  0.00000000000E+00 0. -1.
       21   -1    0    0  502  504  0.00000000000E+00  0.00000000000E+00 -0.18949484179E+04  0.18949484179E+04  0.00000000000E+00 0.  1.
        6    1    1    2  501    0  0.65488555513E+02  0.20965303663E+03 -0.88209634898E+03  0.92534648406E+03  0.17300000000E+03 0.  1.
       -6    1    1    2    0  503  0.10662978150E+03  0.43039873902E+02 -0.20211851661E+03  0.28983311716E+03  0.17300000000E+03 0. -1.
        6    1    1    2  502    0 -0.17099968177E+03 -0.11838537228E+03 -0.42395479210E+03  0.50291416094E+03  0.17300000000E+03 0.  1.
       -6    1    1    2    0  504 -0.11186552418E+01 -0.13430753826E+03 -0.23926354764E+03  0.32436986829E+03  0.17300000000E+03 0. -1.
</event>
<event>
 6   0  0.4500850E-05  0.3972472E+03  0.7546771E-02  0.1060145E+00
       21   -1    0    0  502  503  0.00000000000E+00  0.00000000000E+00  0.38949784578E+03  0.38949784578E+03  0.00000000000E+00 0. -1.
       21   -1    0    0  501  504  0.00000000000E+00  0.00000000000E+00 -0.23523843505E+04  0.23523843505E+04  0.00000000000E+00 0.  1.
        6    1    1    2  501    0 -0.66151266824E+02 -0.26006078190E+03 -0.10925965323E+04  0.11382898501E+04  0.17300000000E+03 0.  1.
       -6    1    1    2    0  504  0.55076786127E+02 -0.72962272013E+02 -0.32202208649E+03  0.37680786841E+03  0.17300000000E+03 0. -1.
        6    1    1    2  502    0 -0.66056726693E+01  0.22852252978E+03 -0.83084387396E+03  0.87891792815E+03  0.17300000000E+03 0.  1.
       -6    1    1    2    0  503  0.17680153367E+02  0.10450052414E+03  0.28257598801E+03  0.34786654966E+03  0.17300000000E+03 0. -1.
</event>
<event>
 6   0  0.4500850E-05  0.1956227E+03  0.7546771E-02  0.1154441E+00
       21   -1    0    0  502  503  0.00000000000E+00  0.00000000000E+00  0.32208843953E+03  0.32208843953E+03  0.00000000000E+00 0. -1.
       21   -1    0    0  501  504  0.00000000000E+00  0.00000000000E+00 -0.85436989905E+03  0.85436989905E+03  0.00000000000E+00 0.  1.
        6    1    1    2  501    0 -0.85173223266E+02 -0.30771660413E+02 -0.23451029619E+03  0.30516463108E+03  0.17300000000E+03 0.  1.
       -6    1    1    2    0  504 -0.47543138215E+01  0.11004240713E+03 -0.15843620891E+03  0.25915818946E+03  0.17300000000E+03 0.  1.
        6    1    1    2  502    0  0.77369275882E+02  0.10517051746E+02  0.16434503368E+03  0.25106752742E+03  0.17300000000E+03 0. -1.
       -6    1    1    2    0  503  0.12558261206E+02 -0.89787798465E+02 -0.30367998810E+03  0.36106799062E+03  0.17300000000E+03 0.  1.
</event>
<event>
 6   0  0.4500850E-05  0.4547578E+03  0.7546771E-02  0.1026313E+00
       -2   -1    0    0    0  501  0.00000000000E+00  0.00000000000E+00  0.53534817082E+03  0.53534817082E+03  0.00000000000E+00 0. -1.
        2   -1    0    0  502    0  0.00000000000E+00  0.00000000000E+00 -0.67078248309E+03  0.67078248309E+03  0.00000000000E+00 0.  1.
        6    1    1    2  502    0 -0.83949891798E+02 -0.16093030037E+03 -0.27223215286E+03  0.37011551029E+03  0.17300000000E+03 0.  1.
       -6    1    1    2    0  503 -0.82861649198E+02  0.16398584899E+03  0.31125755103E+02  0.25427391571E+03  0.17300000000E+03 0. -1.
        6    1    1    2  503    0  0.13938443013E+03 -0.20222003490E+03  0.12692240497E+02  0.30068431094E+03  0.17300000000E+03 0. -1.
       -6    1    1    2    0  501  0.27427110861E+02  0.19916448627E+03  0.92979844990E+02  0.28105691697E+03  0.17300000000E+03 0. -1.
</event>
<event>
 6   0  0.4500850E-05  0.3773301E+03  0.7546771E-02  0.1071228E+00
       21   -1    0    0  502  503  0.00000000000E+00  0.00000000000E+00  0.15447847574E+04  0.15447847574E+04  0.00000000000E+00 0.  1.
       21   -1    0    0  501  504  0.00000000000E+00  0.00000000000E+00 -0.71769752295E+03  0.71769752295E+03  0.00000000000E+00 0. -1.
        6    1    1    2  501    0  0.40958227196E+03 -0.17003657598E+03  0.72802317710E+02  0.48155918862E+03  0.17300000000E+03 0. -1.
       -6    1    1    2    0  503 -0.12521972447E+03  0.29406774228E+03 -0.33692877676E+03  0.49558633663E+03  0.17300000000E+03 0.  1.
        6    1    1    2  502    0  0.51287654882E+02  0.11804483939E+03  0.48905512711E+03  0.53448005108E+03  0.17300000000E+03 0. -1.
       -6    1    1    2    0  504 -0.33565020238E+03 -0.24207600569E+03  0.60215856634E+03  0.75085670398E+03  0.17300000000E+03 0.  1.
</event>
<event>
 6   0  0.4500850E-05  0.3001253E+03  0.7546771E-02  0.1102943E+00
       21   -1    0    0  504  503  0.00000000000E+00  0.00000000000E+00  0.16932581403E+04  0.16932581403E+04  0.00000000000E+00 0. -1.
       21   -1    0    0  501  504  0.00000000000E+00  0.00000000000E+00 -0.42433561157E+03  0.42433561157E+03  0.00000000000E+00 0. -1.
        6    1    1    2  501    0  0.74190969845E+02 -0.52949486532E+01 -0.14161215870E+03  0.23561693483E+03  0.17300000000E+03 0. -1.
       -6    1    1    2    0  502  0.54101723809E+02 -0.10794123491E+03 -0.80452542688E+02  0.22578732989E+03  0.17300000000E+03 0. -1.
        6    1    1    2  502    0  0.65940345149E+02  0.26890840957E+03  0.36317270286E+03  0.48834749304E+03  0.17300000000E+03 0. -1.
       -6    1    1    2    0  503 -0.19423303880E+03 -0.15567222601E+03  0.11278145273E+04  0.11678419942E+04  0.17300000000E+03 0. -1.
</event>
<event>
 6   0  0.4500850E-05  0.3521765E+03  0.7546771E-02  0.1075194E+00
       21   -1    0    0  502  503  0.00000000000E+00  0.00000000000E+00  0.12920151214E+04  0.12920151214E+04  0.00000000000E+00 0. -1.
       21   -1    0    0  501  504  0.00000000000E+00  0.00000000000E+00 -0.44362782547E+03  0.44362782547E+03  0.00000000000E+00 0. -1.
        6    1    1    2  501    0 -0.57219082213E+02 -0.81238833960E+02 -0.58377804992E+02  0.20787193083E+03  0.17300000000E+03 0. -1.
       -6    1    1    2    0  503 -0.41014159973E+03  0.29027455247E+03  0.45898856916E+03  0.70219296085E+03  0.17300000000E+03 0. -1.
        6    1    1    2  502    0  0.10358843568E+03 -0.19609442515E+03  0.25145448467E+03  0.37728231531E+03  0.17300000000E+03 0.  1.
       -6    1    1    2    0  504  0.36377224626E+03 -0.12941293366E+02  0.19632204708E+03  0.44829573988E+03  0.17300000000E+03 0. -1.
</event>
<event>
 6   0  0.4500850E-05  0.3269678E+03  0.7546771E-02  0.1075007E+00
       21   -1    0    0  504  503  0.00000000000E+00  0.00000000000E+00  0.19903300835E+04  0.19903300835E+04  0.00000000000E+00 0.  1.
       21   -1    0    0  502  504  0.00000000000E+00  0.00000000000E+00 -0.24800091494E+03  0.24800091494E+03  0.00000000000E+00 0. -1.
        6    1    1    2  501    0  0.10917445985E+03  0.15928504197E+03  0.50396747271E+03  0.56674774003E+03  0.17300000000E+03 0.  1.
       -6    1    1    2    0  501 -0.95032756655E+02  0.15679358826E+03  0.22542198480E+03  0.33817085237E+03  0.17300000000E+03 0. -1.
        6    1    1    2  502    0 -0.35129320891E+03 -0.28732706590E+03  0.60596613995E+03  0.77658722897E+03  0.17300000000E+03 0. -1.
       -6    1    1    2    0  503  0.33715150572E+03 -0.28751564332E+02  0.40697357108E+03  0.55682517707E+03  0.17300000000E+03 0.  1.
</event>
<event>
 6   0  0.4500850E-05  0.4835431E+03  0.7546771E-02  0.1050489E+00
       21   -1    0    0  501  503  0.00000000000E+00  0.00000000000E+00  0.61535549569E+03  0.61535549569E+03  0.00000000000E+00 0.  1.
       21   -1    0    0  503  504  0.00000000000E+00  0.00000000000E+00 -0.18279002074E+04  0.18279002074E+04  0.00000000000E+00 0.  1.
        6    1    1    2  501    0 -0.11021281173E+03  0.24430090159E+03  0.61517909404E+02  0.32487420268E+03  0.17300000000E+03 0. -1.
       -6    1    1    2    0  504  0.74570048794E+02 -0.16920478980E+03 -0.12175976949E+04  0.12436495084E+04  0.17300000000E+03 0. -1.
        6    1    1    2  502    0 -0.33546820635E+02 -0.88136847680E+02 -0.42117028153E+03  0.46498053630E+03  0.17300000000E+03 0.  1.
       -6    1    1    2    0  502  0.69189583567E+02  0.13040735891E+02  0.36470535532E+03  0.40975145572E+03  0.17300000000E+03 0.  1.
</event>
<event>
 6   0  0.4500850E-05  0.2556384E+03  0.7546771E-02  0.1111059E+00
       21   -1    0    0  502  503  0.00000000000E+00  0.00000000000E+00  0.74053193770E+03  0.74053193770E+03  0.00000000000E+00 0.  1.
       21   -1    0    0  501  504  0.00000000000E+00  0.00000000000E+00 -0.51845259127E+03  0.51845259127E+03  0.00000000000E+00 0. -1.
        6    1    1    2  501    0  0.13257051653E+02  0.31980325633E+03  0.34310735015E+03  0.50010151560E+03  0.17300000000E+03 0.  1.
       -6    1    1    2    0  503 -0.62153520800E+01  0.67415844794E+01  0.60207707816E+02  0.18340678189E+03  0.17300000000E+03 0.  1.
        6    1    1    2  502    0  0.37282204971E+02 -0.31764848021E+03 -0.89337457166E+02  0.37443384067E+03  0.17300000000E+03 0.  1.
       -6    1    1    2    0  504 -0.44323904544E+02 -0.88963606027E+01 -0.91898254368E+02  0.20104239081E+03  0.17300000000E+03 0. -1.
</event>
<event>
 6   0  0.4500850E-05  0.5567755E+03  0.7546771E-02  0.1002630E+00
       -2   -1    0    0    0  501  0.00000000000E+00  0.00000000000E+00  0.76378382283E+03  0.76378382283E+03  0.00000000000E+00 0.  1.
        2   -1    0    0  503    0  0.00000000000E+00  0.00000000000E+00 -0.62899613812E+03  0.62899613812E+03  0.00000000000E+00 0. -1.
        6    1    1    2  502    0  0.13161289596E+03  0.16731121329E+03  0.19328699697E+03  0.33556498577E+03  0.17300000000E+03 0.  1.
       -6    1    1    2    0  502 -0.10695256769E+03 -0.25796451914E+03 -0.30327483057E+03  0.44708966408E+03  0.17300000000E+03 0. -1.
        6    1    1    2  503    0 -0.12270006590E+03 -0.85482849761E+01 -0.71149048618E+02  0.22387399686E+03  0.17300000000E+03 0. -1.
       -6    1    1    2    0  501  0.98039737634E+02  0.99201590823E+02  0.31592456692E+03  0.38625131425E+03  0.17300000000E+03 0.  1.
</event>
<event>
 6   0  0.4500850E-05  0.3098962E+03  0.7546771E-02  0.1083673E+00
       21   -1    0    0  502  503  0.00000000000E+00  0.00000000000E+00  0.11842086379E+04  0.11842086379E+04  0.00000000000E+00 0.  1.
       21   -1    0    0  503  504  0.00000000000E+00  0.00000000000E+00 -0.19454858059E+03  0.19454858059E+03  0.00000000000E+00 0.  1.
        6    1    1    2  501    0  0.71235936832E+02 -0.70035824403E+02  0.30293365642E+03  0.36287377363E+03  0.17300000000E+03 0. -1.
       -6    1    1    2    0  501 -0.16148479771E+02  0.15425590093E+03  0.73520981826E+02  0.24370061785E+03  0.17300000000E+03 0.  1.
        6    1    1    2  502    0 -0.11976842192E+03  0.74556525637E+02  0.25355370394E+03  0.33781893254E+03  0.17300000000E+03 0.  1.
       -6    1    1    2    0  504  0.64680964860E+02 -0.15877660217E+03  0.35965171509E+03  0.43436389442E+03  0.17300000000E+03 0.  1.
</event>
<event>
 6   0  0.4500850E-05  0.2401024E+03  0.7546771E-02  0.1121384E+00
       21   -1    0    0  501  503  0.00000000000E+00  0.00000000000E+00  0.17649821889E+04  0.17649821889E+04  0.00000000000E+00 0.  1.
       21   -1    0    0  502  504  0.00000000000E+00  0.00000000000E+00 -0.19206529497E+03  0.19206529497E+03  0.00000000000E+00 0.  1.
        6    1    1    2  501    0  0.19443072660E+03  0.91251884110E+02  0.50640795905E+03  0.57663527015E+03  0.17300000000E+03 0.  1.
       -6    1    1    2    0  504  0.10778848236E+02 -0.11296590631E+03  0.66972012324E+03  0.70095044263E+03  0.17300000000E+03 0.  1.
        6    1    1    2  502    0 -0.23096601415E+03  0.12722107288E+03  0.12446613884E+03  0.33904471799E+03  0.17300000000E+03 0.  1.
       -6    1    1    2    0  503  0.25756439316E+02 -0.10550705068E+03  0.27232267276E+03  0.34041705305E+03  0.17300000000E+03 0. -1.
</event>
<event>
 6   0  0.4500850E-05  0.2477833E+03  0.7546771E-02  0.1115267E+00
       21   -1    0    0  501  503  0.00000000000E+00  0.00000000000E+00  0.68109094302E+03  0.68109094302E+03  0.00000000000E+00 0.  1.
       21   -1    0    0  502  504  0.00000000000E+00  0.00000000000E+00 -0.72135322324E+03  0.72135322324E+03  0.00000000000E+00 0. -1.
        6    1    1    2  501    0  0.35366405593E+02 -0.43154278158E+01  0.31071690660E+03  0.35741208934E+03  0.17300000000E+03 0.  1.
       -6    1    1    2    0  504  0.27518227877E+03 -0.66394649448E+02  0.10081019081E+03  0.34673510147E+03  0.17300000000E+03 0.  1.
        6    1    1    2  502    0 -0.29746985598E+03  0.56914665311E+02 -0.23629257775E+03  0.42129654241E+03  0.17300000000E+03 0.  1.
       -6    1    1    2    0  503 -0.13078828378E+02  0.13795411952E+02 -0.21549679988E+03  0.27700043303E+03  0.17300000000E+03 0. -1.
</event>
<event>
 6   0  0.4500850E-05  0.2222372E+03  0.7546771E-02  0.1137091E+00
       21   -1    0    0  502  503  0.00000000000E+00  0.00000000000E+00  0.37162071828E+03  0.37162071828E+03  0.00000000000E+00 0.  1.
       21   -1    0    0  501  504  0.00000000000E+00  0.00000000000E+00 -0.77565503093E+03  0.77565503093E+03  0.00000000000E+00 0. -1.
        6    1    1    2  501    0  0.49270879161E+02  0.25259952027E+03 -0.34869405495E+03  0.46663763364E+03  0.17300000000E+03 0. -1.
       -6    1    1    2    0  503 -0.37770326721E+02 -0.10762510355E+03 -0.16313985802E+03  0.26372973622E+03  0.17300000000E+03 0.  1.
        6    1    1    2  502    0 -0.62922949939E+02 -0.90472702148E+02  0.12088484951E+02  0.20547442403E+03  0.17300000000E+03 0. -1.
       -6    1    1    2    0  504  0.51422397499E+02 -0.54501714580E+02  0.95711115354E+02  0.21143395531E+03  0.17300000000E+03 0. -1.
</event>
<event>
 6   0  0.4500850E-05  0.5388460E+03  0.7546771E-02  0.1036087E+00
       21   -1    0    0  504  503  0.00000000000E+00  0.00000000000E+00  0.18336213952E+04  0.18336213952E+04  0.00000000000E+00 0.  1.
       21   -1    0    0  501  504  0.00000000000E+00  0.00000000000E+00 -0.83560899862E+03  0.83560899862E+03  0.00000000000E+00 0. -1.
        6    1    1    2  501    0 -0.40076086288E+02  0.10815392095E+03  0.21191593386E+03  0.29688503892E+03  0.17300000000E+03 0.  1.
       -6    1    1    2    0  502 -0.11978586875E+03 -0.51501011037E+03 -0.34406470919E+03  0.65413575980E+03  0.17300000000E+03 0. -1.
        6    1    1    2  502    0  0.56529867801E+03  0.53390570301E+02  0.95899121669E+03  0.11278325683E+04  0.17300000000E+03 0.  1.
       -6    1    1    2    0  503 -0.40543672297E+03  0.35346561912E+03  0.17116995520E+03  0.59037702682E+03  0.17300000000E+03 0. -1.
</event>
<event>
 6   0  0.4500850E-05  0.2118842E+03  0.7546771E-02  0.1143408E+00
       21   -1    0    0  502  503  0.00000000000E+00  0.00000000000E+00  0.14518349910E+04  0.14518349910E+04  0.00000000000E+00 0. -1.
       21   -1    0    0  501  504  0.00000000000E+00  0.00000000000E+00 -0.30361993189E+03  0.30361993189E+03  0.00000000000E+00 0. -1.
        6    1    1    2  501    0 -0.66815516888E+01 -0.20627742503E+03  0.98392316420E+03  0.10201121567E+04  0.17300000000E+03 0. -1.
       -6    1    1    2    0  504  0.70795282835E+02 -0.21813708394E+02  0.85755866465E+02  0.20681121483E+03  0.17300000000E+03 0.  1.
        6    1    1    2  502    0 -0.10507922961E+03  0.13083625847E+03 -0.97608313703E+02  0.26003106339E+03  0.17300000000E+03 0. -1.
       -6    1    1    2    0  503  0.40965498466E+02  0.97254874956E+02  0.17614434214E+03  0.26850048796E+03  0.17300000000E+03 0.  1.
</event>
<event>
 6   0  0.4500850E-05  0.2773132E+03  0.7546771E-02  0.1106408E+00
       21   -1    0    0  502  503  0.00000000000E+00  0.00000000000E+00  0.27855732176E+03  0.27855732176E+03  0.00000000000E+00 0.  1.
       21   -1    0    0  501  504  0.00000000000E+00  0.00000000000E+00 -0.12926237372E+04  0.12926237372E+04  0.00000000000E+00 0.  1.
        6    1    1    2  501    0 -0.15372290000E+03  0.11879230778E+03 -0.40599722516E+03  0.48218781528E+03  0.17300000000E+03 0. -1.
       -6    1    1    2    0  504 -0.69800728500E+02  0.12851943158E+03  0.32284002713E+02  0.22882448039E+03  0.17300000000E+03 0.  1.
        6    1    1    2  502    0  0.13318939578E+03 -0.33528212563E+01 -0.10966555977E+03  0.24434850431E+03  0.17300000000E+03 0. -1.
       -6    1    1    2    0  503  0.90334232718E+02 -0.24395891810E+03 -0.53068763317E+03  0.61582025894E+03  0.17300000000E+03 0.  1.
</event>
<event>
 6   0  0.4500850E-05  0.3307105E+03  0.7546771E-02  0.1078744E+00
       21   -1    0    0  502  503  0.00000000000E+00  0.00000000000E+00  0.23981577415E+04  0.23981577415E+04  0.00000000000E+00 0.  1.
       21   -1    0    0  501  504  0.00000000000E+00  0.00000000000E+00 -0.39025159846E+03  0.39025159846E+03  0.00000000000E+00 0.  1.
        6    1    1    2  501    0 -0.33243844176E+01  0.22141221106E+03  0.12832705675E+04  0.13136768127E+04  0.17300000000E+03 0.  1.
       -6    1    1    2    0  504  0.11418130597E+01  0.13953461992E+03 -0.97788777020E+02  0.24282269005E+03  0.17300000000E+03 0. -1.
        6    1    1    2  502    0  0.10178723769E+03 -0.46518335461E+03  0.86525524390E+03  0.10026723454E+04  0.17300000000E+03 0.  1.
       -6    1    1    2    0  503 -0.99604666336E+02  0.10423652364E+03 -0.42830891316E+02  0.22923749184E+03  0.17300000000E+03 0.  1.
</event>
<event>
 6   0  0.4500850E-05  0.5017247E+03  0.7546771E-02  0.1024479E+00
       21   -1    0    0  502  503  0.00000000000E+00  0.00000000000E+00  0.12269096717E+04  0.12269096717E+04  0.00000000000E+00 0. -1.
       21   -1    0    0  503  504  0.00000000000E+00  0.00000000000E+00 -0.62102575488E+03  0.62102575488E+03  0.00000000000E+00 0. -1.
        6    1    1    2  501    0 -0.44784866835E+03  0.13048469568E+03  0.33760070355E+02  0.49866163668E+03  0.17300000000E+03 0. -1.
       -6    1    1    2    0  501 -0.68182714849E+02 -0.58073642134E+01  0.73143200521E+02  0.19990381654E+03  0.17300000000E+03 0. -1.
        6    1    1    2  502    0  0.36371240747E+03  0.74419537905E+02  0.68090213772E+03  0.79459530839E+03  0.17300000000E+03 0.  1.
       -6    1    1    2    0  504  0.15231897573E+03 -0.19909686937E+03 -0.18192149175E+03  0.35477466499E+03  0.17300000000E+03 0. -1.
</event>
<event>
 6   0  0.4500850E-05  0.4119207E+03  0.7546771E-02  0.1039964E+00
       21   -1    0    0  504  503  0.00000000000E+00  0.00000000000E+00  0.11933171241E+04  0.11933171241E+04  0.00000000000E+00 0.  1.
       21   -1    0    0  502  504  0.00000000000E+00  0.00000000000E+00 -0.11182614400E+04  0.11182614400E+04  0.00000000000E+00 0. -1.
        6    1    1    2  501    0  0.29135519904E+03 -0.48746803696E+03 -0.34280623323E+03  0.68553486607E+03  0.17300000000E+03 0. -1.
       -6    1    1    2    0  503  0.28375456419E+03 -0.61608517478E+02  0.23163902795E+03  0.40975346416E+03  0.17300000000E+03 0.  1.
        6    1    1    2  502    0  0.14544670849E+02  0.28917618648E+03 -0.24938301913E+03  0.41947026654E+03  0.17300000000E+03 0.  1.
       -6    1    1    2    0  501 -0.58965443408E+03  0.25990036795E+03  0.43560590845E+03  0.79681996735E+03  0.17300000000E+03 0. -1.
</event>
<event>
 6   0  0.4500850E-05  0.3367356E+03  0.7546771E-02  0.1076779E+00
       21   -1    0    0  504  503  0.00000000000E+00  0.00000000000E+00  0.10656257769E+04  0.10656257769E+04  0.00000000000E+00 0. -1.
       21   -1    0    0  502  504  0.00000000000E+00  0.00000000000E+00 -0.26819049547E+03  0.26819049547E+03  0.00000000000E+00 0.  1.
        6    1    1    2  501    0  0.16533302904E+03 -0.84209590434E+02  0.29007395569E+03  0.38535459694E+03  0.17300000000E+03 0. -1.
       -6    1    1    2    0  503  0.81604386593E+02  0.20357826673E+02  0.29358504701E+03  0.35099130594E+03  0.17300000000E+03 0.  1.
        6    1    1    2  502    0 -0.13763712960E+03  0.12012837564E+03  0.27875788961E+03  0.37551267236E+03  0.17300000000E+03 0. -1.
       -6    1    1    2    0  501 -0.10930028603E+03 -0.56276611878E+02 -0.64981610876E+02  0.22195769715E+03  0.17300000000E+03 0.  1.
</event>
<event>
 6   0  0.4500850E-05  0.1906814E+03  0.7546771E-02  0.1158972E+00
       21   -1    0    0  504  503  0.00000000000E+00  0.00000000000E+00  0.23619902791E+04  0.23619902791E+04  0.00000000000E+00 0. -1.
       21   -1    0    0  502  504  0.00000000000E+00  0.00000000000E+00 -0.15718120805E+03  0.15718120805E+03  0.00000000000E+00 0.  1.
        6    1    1    2  501    0  0.41738871405E+02 -0.42187772787E+02  0.32732797843E+03  0.37495939383E+03  0.17300000000E+03 0.  1.
       -6    1    1    2    0  503 -0.27586719575E+02  0.59242525544E+02  0.17179880502E+04  0.17279128001E+04  0.17300000000E+03 0. -1.
        6    1    1    2  502    0 -0.28209248671E+02  0.65603686306E+02  0.44827406911E+02  0.19245285599E+03  0.17300000000E+03 0. -1.
       -6    1    1    2    0  501  0.14057096841E+02 -0.82658439064E+02  0.11466563551E+03  0.22384643729E+03  0.17300000000E+03 0.  1.
</event>
<event>
 6   0  0.4500850E-05  0.3317058E+03  0.7546771E-02  0.1093425E+00
       21   -1    0    0  501  503  0.00000000000E+00  0.00000000000E+00  0.28260054577E+03  0.28260054577E+03  0.00000000000E+00 0. -1.
       21   -1    0    0  502  504  0.00000000000E+00  0.00000000000E+00 -0.17890818251E+04  0.17890818251E+04  0.00000000000E+00 0.  1.
        6    1    1    2  501    0  0.14605895818E+03  0.27135811432E+03 -0.26036504891E+03  0.43896173429E+03  0.17300000000E+03 0.  1.
       -6    1    1    2    0  504  0.10131231156E+03 -0.10166461132E+03 -0.22366610976E+03  0.31710472454E+03  0.17300000000E+03 0. -1.
        6    1    1    2  502    0  0.13106240409E+02 -0.42853587316E+02 -0.95490255026E+03  0.97148138632E+03  0.17300000000E+03 0.  1.
       -6    1    1    2    0  503 -0.26047751014E+03 -0.12683991568E+03 -0.67547570342E+02  0.34413452567E+03  0.17300000000E+03 0. -1.
</event>
<event>
 6   0  0.4500850E-05  0.2377691E+03  0.7546771E-02  0.1125663E+00
       21   -1    0    0  502  503  0.00000000000E+00  0.00000000000E+00  0.45870360544E+03  0.45870360544E+03  0.00000000000E+00 0. -1.
       21   -1    0    0  503  504  0.00000000000E+00  0.00000000000E+00 -0.84129835274E+03  0.84129835274E+03  0.00000000000E+00 0. -1.
        6    1    1    2  501    0  0.87733507965E+02 -0.71263625805E+02 -0.23842817739E+03  0.31551968014E+03  0.17300000000E+03 0. -1.
       -6    1    1    2    0  501  0.11362589952E+03 -0.18243527483E+03 -0.69066510613E+02  0.28441634523E+03  0.17300000000E+03 0. -1.
        6    1    1    2  502    0 -0.41003120121E+02  0.33579593532E+02  0.20455668835E+03  0.27309574092E+03  0.17300000000E+03 0. -1.
       -6    1    1    2    0  504 -0.16035628736E+03  0.22011930710E+03 -0.27965674765E+03  0.42697019189E+03  0.17300000000E+03 0. -1.
</event>
<event>
 6   0  0.4500850E-05  0.2983910E+03  0.7546771E-02  0.1098809E+00
       21   -1    0    0  501  503  0.00000000000E+00  0.00000000000E+00  0.98355064599E+03  0.98355064599E+03  0.00000000000E+00 0.  1.
       21   -1    0    0  502  504  0.00000000000E+00  0.00000000000E+00 -0.92935209602E+03  0.92935209602E+03  0.00000000000E+00 0.  1.
        6    1    1    2  501    0 -0.11307160056E+03 -0.57317387524E+02  0.32765828514E+02  0.21696329018E+03  0.17300000000E+03 0.  1.
       -6    1    1    2    0  504 -0.17205654225E+03 -0.15573800521E+03 -0.65471956891E+03  0.71585228498E+03  0.17300000000E+03 0.  1.
        6    1    1    2  502    0  0.32273559990E+03  0.33197175728E+03  0.50509377118E+03  0.70669104477E+03  0.17300000000E+03 0.  1.
       -6    1    1    2    0  503 -0.37607457090E+02 -0.11891636455E+03  0.17105851918E+03  0.27339612208E+03  0.17300000000E+03 0.  1.
</event>
<event>
 6   0  0.4500850E-05  0.7469043E+03  0.7546771E-02  0.9659473E-01
       -2   -1    0    0    0  501  0.00000000000E+00  0.00000000000E+00  0.40632567845E+03  0.40632567845E+03  0.00000000000E+00 0.  1.
        2   -1    0    0  502    0  0.00000000000E+00  0.00000000000E+00 -0.14697613362E+04  0.14697613362E+04  0.00000000000E+00 0. -1.
        6    1    1    2  502    0  0.12962297042E+03  0.24820619096E+03  0.39004854068E+02  0.33144955322E+03  0.17300000000E+03 0.  1.
       -6    1    1    2    0  501 -0.29000224700E+02 -0.31945532962E+03 -0.26392573282E+03  0.44997612503E+03  0.17300000000E+03 0. -1.
        6    1    1    2  503    0 -0.25166646071E+03 -0.15377209207E+03 -0.61307531479E+03  0.70197735387E+03  0.17300000000E+03 0. -1.
       -6    1    1    2    0  503  0.15104371499E+03  0.22502123074E+03 -0.22543946424E+03  0.39268398256E+03  0.17300000000E+03 0.  1.
</event>
<event>
 6   0  0.4500850E-05  0.2464583E+03  0.7546771E-02  0.1118562E+00
       21   -1    0    0  502  503  0.00000000000E+00  0.00000000000E+00  0.32260888337E+03  0.32260888337E+03  0.00000000000E+00 0.  1.
       21   -1    0    0  501  504  0.00000000000E+00  0.00000000000E+00 -0.13341819549E+04  0.13341819549E+04  0.00000000000E+00 0.  1.
        6    1    1    2  501    0  0.96463791670E+02  0.98801746950E+01 -0.55424145557E+03  0.58865564809E+03  0.17300000000E+03 0.  1.
       -6    1    1    2    0  504  0.64569233584E+02  0.19793644889E+03  0.89097125905E+02  0.28498301979E+03  0.17300000000E+03 0.  1.
        6    1    1    2  502    0 -0.14331874653E+03  0.30432381172E+02 -0.99311743354E+02  0.24750397027E+03  0.17300000000E+03 0.  1.
       -6    1    1    2    0  503 -0.17714278726E+02 -0.23824900475E+03 -0.44711699847E+03  0.53564820009E+03  0.17300000000E+03 0.  1.
</event>
<event>
 6   0  0.4500850E-05  0.2810513E+03  0.7546771E-02  0.1106063E+00
       21   -1    0    0  501  503  0.00000000000E+00  0.00000000000E+00  0.15983975456E+04  0.15983975456E+04  0.00000000000E+00 0.  1.
       21   -1    0    0  502  504  0.00000000000E+00  0.00000000000E+00 -0.21548011646E+03  0.21548011646E+03  0.00000000000E+00 0. -1.
        6    1    1    2  501    0  0.44972215516E+02 -0.74251452035E+02  0.65802752734E+02  0.20443771806E+03  0.17300000000E+03 0.  1.
       -6    1    1    2    0  504  0.28052473866E+03  0.62324815188E+02  0.28270888719E+03  0.43867052156E+03  0.17300000000E+03 0. -1.
        6    1    1    2  502    0 -0.18369849701E+03  0.13107830705E+03  0.66000875115E+03  0.71865653269E+03  0.17300000000E+03 0.  1.
       -6    1    1    2    0  503 -0.14179845717E+03 -0.11915167021E+03  0.37439703804E+03  0.45211288973E+03  0.17300000000E+03 0. -1.
</event>
<event>
 6   0  0.4500850E-05  0.1027335E+04  0.7546771E-02  0.9287227E-01
       21   -1    0    0  502  503  0.00000000000E+00  0.00000000000E+00  0.16544485247E+04  0.16544485247E+04  0.00000000000E+00 0. -1.
       21   -1    0    0  503  504  0.00000000000E+00  0.00000000000E+00 -0.13956994749E+04  0.13956994749E+04  0.00000000000E+00 0. -1.
        6    1    1    2  501    0 -0.34879537200E+03 -0.27493459534E+03 -0.35678612879E+03  0.59537600299E+03  0.17300000000E+03 0.  1.
       -6    1    1    2    0  501  0.71753781759E+02  0.36142546277E+03  0.50175610744E+03  0.64611543991E+03  0.17300000000E+03 0. -1.
        6    1    1    2  502    0  0.38756018480E+03  0.40951252046E+03  0.76420531439E+03  0.96531972103E+03  0.17300000000E+03 0. -1.
       -6    1    1    2    0  504 -0.11051859457E+03 -0.49600338789E+03 -0.65042624324E+03  0.84333683570E+03  0.17300000000E+03 0. -1.
</event>
<event>
 6   0  0.4500850E-05  0.2583928E+03  0.7546771E-02  0.1121185E+00
       21   -1    0    0  502  503  0.00000000000E+00  0.00000000000E+00  0.84468245343E+03  0.84468245343E+03  0.00000000000E+00 0. -1.
       21   -1    0    0  501  504  0.00000000000E+00  0.00000000000E+00 -0.94949666577E+03  0.94949666577E+03  0.00000000000E+00 0. -1.
        6    1    1    2  501    0 -0.20093866306E+03 -0.11042809981E+03  0.96164744767E+02  0.30289828273E+03  0.17300000000E+03 0. -1.
       -6    1    1    2    0  504  0.22684656414E+03 -0.10660700849E+03 -0.57952322111E+03  0.65467593642E+03  0.17300000000E+03 0. -1.
        6    1    1    2  502    0 -0.36215478380E+02  0.36602385429E+02 -0.16100528450E+03  0.24187392817E+03  0.17300000000E+03 0. -1.
       -6    1    1    2    0  503  0.10307577301E+02  0.18043272287E+03  0.53954954849E+03  0.59473097188E+03  0.17300000000E+03 0. -1.
</event>
<event>
 6   0  0.4500850E-05  0.2438703E+03  0.7546771E-02  0.1118961E+00
       21   -1    0    0  502  503  0.00000000000E+00  0.00000000000E+00  0.16055607253E+04  0.16055607253E+04  0.00000000000E+00 0.  1.
       21   -1    0    0  503  504  0.00000000000E+00  0.00000000000E+00 -0.31673520241E+03  0.31673520241E+03  0.00000000000E+00 0.  1.
        6    1    1    2  501    0 -0.60294259268E+02  0.88311176334E+02 -0.79690793633E+02  0.21843507996E+03  0.17300000000E+03 0.  1.
       -6    1    1    2    0  501 -0.20147210440E+02  0.96764245518E+02  0.85349581883E+03  0.87644357609E+03  0.17300000000E+03 0.  1.
        6    1    1    2  502    0  0.26295822090E+03 -0.10071160522E+03  0.44275931064E+03  0.55249856155E+03  0.17300000000E+03 0.  1.
       -6    1    1    2    0  504 -0.18251675119E+03 -0.84363816634E+02  0.72261187061E+02  0.27491871012E+03  0.17300000000E+03 0.  1.
</event>
<event>
 6   0  0.4500850E-05  0.6397680E+03  0.7546771E-02  0.1019410E+00
       21   -1    0    0  502  503  0.00000000000E+00  0.00000000000E+00  0.12605664720E+04  0.12605664720E+04  0.00000000000E+00 0. -1.
       21   -1    0    0  501  504  0.00000000000E+00  0.00000000000E+00 -0.15575859805E+04  0.15575859805E+04  0.00000000000E+00 0. -1.
        6    1    1    2  501    0 -0.60241289044E+03 -0.16985503597E+03 -0.76680649005E+02  0.65388144625E+03  0.17300000000E+03 0. -1.
       -6    1    1    2    0  504  0.54402959234E+03  0.28911356458E+03 -0.85081825445E+03  0.10646011237E+04  0.17300000000E+03 0. -1.
        6    1    1    2  502    0  0.15186154654E+03 -0.77421304632E+02 -0.15550159445E+03  0.28838469725E+03  0.17300000000E+03 0. -1.
       -6    1    1    2    0  503 -0.93478248441E+02 -0.41837223986E+02  0.78598098937E+03  0.81128518530E+03  0.17300000000E+03 0. -1.
</event>
<event>
 6   0  0.4500850E-05  0.2840694E+03  0.7546771E-02  0.1100212E+00
       21   -1    0    0  502  503  0.00000000000E+00  0.00000000000E+00  0.36239715437E+03  0.36239715437E+03  0.00000000000E+00 0. -1.
       21   -1    0    0  501  504  0.00000000000E+00  0.00000000000E+00 -0.17796565707E+04  0.17796565707E+04  0.00000000000E+00 0. -1.
        6    1    1    2  501    0 -0.86997347047E+01 -0.63985831060E+02 -0.90718342102E+02  0.20573937288E+03  0.17300000000E+03 0. -1.
       -6    1    1    2    0  504 -0.32659042721E+03  0.13087179361E+03  0.35165335613E+02  0.39364239398E+03  0.17300000000E+03 0. -1.
        6    1    1    2  502    0  0.10048966103E+03 -0.78437797373E+02 -0.81849436723E+02  0.22995432225E+03  0.17300000000E+03 0.  1.
       -6    1    1    2    0  503  0.23480050088E+03  0.11551834822E+02 -0.12798569732E+04  0.13127176360E+04  0.17300000000E+03 0. -1.
</event>
<event>
 6   0  0.4500850E-05  0.2818615E+03  0.7546771E-02  0.1107424E+00
       21   -1    0    0  501  503  0.00000000000E+00  0.00000000000E+00  0.44704031030E+03  0.44704031030E+03  0.00000000000E+00 0.  1.
       21   -1    0    0  502  504  0.00000000000E+00  0.00000000000E+00 -0.12804971289E+04  0.12804971289E+04  0.00000000000E+00 0. -1.
        6    1    1    2  501    0 -0.36229273373E+02  0.11974887682E+02  0.16964683824E+03  0.24528556401E+03  0.17300000000E+03 0.  1.
       -6    1    1    2    0  504  0.13165935944E+03 -0.26673765994E+03 -0.39174376618E+03  0.52141667071E+03  0.17300000000E+03 0. -1.
        6    1    1    2  502    0 -0.17138654548E+03 -0.13593637551E+02 -0.58234475455E+03  0.63135770218E+03  0.17300000000E+03 0. -1.
       -6    1    1    2    0  503  0.75956459412E+02  0.26835640981E+03 -0.29015136141E+02  0.32947750232E+03  0.17300000000E+03 0.  1.
</event>
<event>
 6   0  0.4500850E-05  0.2725925E+03  0.7546771E-02  0.1102427E+00
       21   -1    0    0  504  503  0.00000000000E+00  0.00000000000E+00  0.50551153898E+03  0.50551153898E+03  0.00000000000E+00 0. -1.
       21   -1    0    0  501  504  0.00000000000E+00  0.00000000000E+00 -0.15746769589E+04  0.15746769589E+04  0.00000000000E+00 0. -1.
        6    1    1    2  501    0 -0.16764021486E+03 -0.58685294396E+02 -0.62362643427E+03  0.67110813953E+03  0.17300000000E+03 0.  1.
       -6    1    1    2    0  503  0.12623485190E+03 -0.12297813926E+03 -0.17252017599E+03  0.30124918538E+03  0.17300000000E+03 0.  1.
        6    1    1    2  502    0  0.38000137285E+02 -0.15387096872E+03  0.32486479615E+03  0.40073235610E+03  0.17300000000E+03 0. -1.
       -6    1    1    2    0  502  0.34052256795E+01  0.33553440238E+03 -0.59788360580E+03  0.70709881688E+03  0.17300000000E+03 0. -1.
</event>
<event>
 6   0  0.4500850E-05  0.5857102E+03  0.7546771E-02  0.1019387E+00
       21   -1    0    0  504  503  0.00000000000E+00  0.00000000000E+00  0.56884620090E+03  0.56884620090E+03  0.00000000000E+00 0. -1.
       21   -1    0    0  501  504  0.00000000000E+00  0.00000000000E+00 -0.13903061565E+04  0.13903061565E+04  0.00000000000E+00 0. -1.
        6    1    1    2  501    0  0.44410345520E+03  0.19549006713E+03 -0.90397044298E+03  0.10404498100E+04  0.17300000000E+03 0. -1.
       -6    1    1    2    0  503 -0.10147230627E+03 -0.24339512451E+03  0.14664658652E+03  0.34781034618E+03  0.17300000000E+03 0. -1.
        6    1    1    2  502    0 -0.18715740868E+03 -0.73078827485E+02  0.73014332727E+02  0.27500636981E+03  0.17300000000E+03 0.  1.
       -6    1    1    2    0  502 -0.15547374025E+03  0.12098388486E+03 -0.13715043190E+03  0.29588583148E+03  0.17300000000E+03 0.  1.
</event>
<event>
 6   0  0.4500850E-05  0.3321092E+03  0.7546771E-02  0.1083127E+00
       21   -1    0    0  501  503  0.00000000000E+00  0.00000000000E+00  0.10672362483E+04  0.10672362483E+04  0.00000000000E+00 0. -1.
       21   -1    0    0  502  504  0.00000000000E+00  0.00000000000E+00 -0.97042480426E+03  0.97042480426E+03  0.00000000000E+00 0. -1.
        6    1    1    2  501    0  0.22678478268E+03 -0.57920291089E+02  0.51975978137E+03  0.59570573952E+03  0.17300000000E+03 0. -1.
       -6    1    1    2    0  504 -0.61462522612E+02  0.34174387569E+03  0.16745571958E+03  0.42253631356E+03  0.17300000000E+03 0.  1.
        6    1    1    2  502    0  0.12054326436E+03 -0.18406857721E+02 -0.55174175157E+03  0.59094623395E+03  0.17300000000E+03 0. -1.
       -6    1    1    2    0  503 -0.28586552443E+03 -0.26541672688E+03 -0.38662305310E+02  0.42847276555E+03  0.17300000000E+03 0. -1.
</event>
<event>
 6   0  0.4500850E-05  0.2225981E+03  0.7546771E-02  0.1141133E+00
       21   -1    0    0  504  503  0.00000000000E+00  0.00000000000E+00  0.13596058311E+04  0.13596058311E+04  0.00000000000E+00 0. -1.
       21   -1    0    0  502  504  0.00000000000E+00  0.00000000000E+00 -0.83273098136E+03  0.83273098136E+03  0.00000000000E+00 0.  1.
        6    1    1    2  501    0 -0.44211926892E+02 -0.67806376209E+01  0.70807595903E+03  0.73027476697E+03  0.17300000000E+03 0. -1.
       -6    1    1    2    0  501  0.13201020593E+03 -0.51195518036E+02  0.89101882135E+02  0.24065706085E+03  0.17300000000E+03 0. -1.
        6    1    1    2  502    0 -0.12996537199E+03  0.51830044696E+02 -0.71155925604E+03  0.74553532867E+03  0.17300000000E+03 0.  1.
       -6    1    1    2    0  503  0.42167092959E+02  0.61461109615E+01  0.44125626460E+03  0.47586965595E+03  0.17300000000E+03 0. -1.
</event>
<event>
 6   0  0.4500850E-05  0.3842126E+03  0.7546771E-02  0.1060117E+00
       21   -1    0    0  502  503  0.00000000000E+00  0.00000000000E+00  0.74552980369E+03  0.74552980369E+03  0.00000000000E+00 0. -1.
       21   -1    0    0  501  504  0.00000000000E+00  0.00000000000E+00 -0.20695754147E+04  0.20695754147E+04  0.00000000000E+00 0. -1.
        6    1    1    2  501    0 -0.38990356113E+01 -0.16138534203E+03 -0.10987594335E+03  0.26088724390E+03  0.17300000000E+03 0.  1.
       -6    1    1    2    0  503 -0.59488160619E+03  0.47681915564E+02 -0.95773820376E+02  0.62869652069E+03  0.17300000000E+03 0. -1.
        6    1    1    2  502    0 -0.10376593899E+02  0.11407643312E+02  0.31244443319E+03  0.35747493878E+03  0.17300000000E+03 0. -1.
       -6    1    1    2    0  504  0.60915723570E+03  0.10229578315E+03 -0.14308402805E+04  0.15680465150E+04  0.17300000000E+03 0. -1.
</event>
<event>
 6   0  0.4500850E-05  0.7693222E+03  0.7546771E-02  0.9653332E-01
       21   -1    0    0  501  503  0.00000000000E+00  0.00000000000E+00  0.10291825224E+04  0.10291825224E+04  0.00000000000E+00 0.  1.
       21   -1    0    0  502  504  0.00000000000E+00  0.00000000000E+00 -0.21334503573E+04  0.21334503573E+04  0.00000000000E+00 0.  1.
        6    1    1    2  501    0  0.41667262351E+03 -0.41803599460E+03 -0.81366857973E+02  0.62041899837E+03  0.17300000000E+03 0. -1.
       -6    1    1    2    0  503 -0.26493480869E+03  0.36614642493E+03 -0.77154973158E+02  0.49003627134E+03  0.17300000000E+03 0.  1.
        6    1    1    2  502    0 -0.54948119401E+03  0.54218770821E+03  0.12129838605E+03  0.80033704898E+03  0.17300000000E+03 0.  1.
       -6    1    1    2    0  504  0.39774337919E+03 -0.49029813854E+03 -0.10670443898E+04  0.12518405610E+04  0.17300000000E+03 0.  1.
</event>
<event>
 6   0  0.4500850E-05  0.2868940E+03  0.7546771E-02  0.1101768E+00
       21   -1    0    0  501  503  0.00000000000E+00  0.00000000000E+00  0.56354927506E+03  0.56354927506E+03  0.00000000000E+00 0.  1.
       21   -1    0    0  502  504  0.00000000000E+00  0.00000000000E+00 -0.67228917005E+03  0.67228917005E+03  0.00000000000E+00 0.  1.
        6    1    1    2  501    0 -0.21205212644E+03  0.11976929996E+03 -0.29676151513E+03  0.42107859884E+03  0.17300000000E+03 0.  1.
       -6    1    1    2    0  503 -0.24412271523E+02  0.13733581152E+03  0.19705332806E+03  0.29701194964E+03  0.17300000000E+03 0.  1.
        6    1    1    2  502    0  0.57840797224E+02 -0.16126114671E+03  0.40111287982E+02  0.24675621711E+03  0.17300000000E+03 0.  1.
       -6    1    1    2    0  504  0.17862360074E+03 -0.95843964771E+02 -0.49142995896E+02  0.27099167952E+03  0.17300000000E+03 0.  1.
</event>
<event>
 6   0  0.4500850E-05  0.1334884E+04  0.7546771E-02  0.9258765E-01
       -2   -1    0    0    0  501  0.00000000000E+00  0.00000000000E+00  0.75607587957E+03  0.75607587957E+03  0.00000000000E+00 0.  1.
        2   -1    0    0  503    0  0.00000000000E+00  0.00000000000E+00 -0.21336296781E+04  0.21336296781E+04  0.00000000000E+00 0. -1.
        6    1    1    2  502    0 -0.61278566723E+02 -0.97410883728E+02 -0.40805825620E+03  0.45791318333E+03  0.17300000000E+03 0. -1.
       -6    1    1    2    0  501 -0.99767996113E+02 -0.18535603306E+03 -0.10594062364E+04  0.10938834882E+04  0.17300000000E+03 0. -1.
        6    1    1    2  503    0  0.62836614969E+03 -0.15210402607E+03  0.98495385671E+02  0.67646876781E+03  0.17300000000E+03 0. -1.
       -6    1    1    2    0  502 -0.46731958686E+03  0.43487094286E+03 -0.85846915978E+01  0.66144011833E+03  0.17300000000E+03 0.  1.
</event>
<event>
 6   0  0.4500850E-05  0.3930957E+03  0.7546771E-02  0.1067514E+00
       21   -1    0    0  501  503  0.00000000000E+00  0.00000000000E+00  0.37522033438E+03  0.37522033438E+03  0.00000000000E+00 0. -1.
       21   -1    0    0  503  504  0.00000000000E+00  0.00000000000E+00 -0.58314822924E+03  0.58314822924E+03  0.00000000000E+00 0. -1.
        6    1    1    2  501    0 -0.10013947031E+03 -0.18500693724E+02  0.63422567105E+02  0.21052698449E+03  0.17300000000E+03 0.  1.
       -6    1    1    2    0  504  0.85506864513E+02 -0.96317308903E+02 -0.73195250224E+02  0.22776082308E+03  0.17300000000E+03 0.  1.
        6    1    1    2  502    0  0.12036000679E+03  0.96328781418E+02 -0.21459753521E+03  0.31582727476E+03  0.17300000000E+03 0. -1.
       -6    1    1    2    0  502 -0.10572740099E+03  0.18489221209E+02  0.16442323461E+02  0.20425348130E+03  0.17300000000E+03 0. -1.
</event>
<event>
 6   0  0.4500850E-05  0.2929177E+03  0.7546771E-02  0.1102283E+00
       21   -1    0    0  501  503  0.00000000000E+00  0.00000000000E+00  0.27658049050E+03  0.27658049050E+03  0.00000000000E+00 0. -1.
       21   -1    0    0  502  504  0.00000000000E+00  0.00000000000E+00 -0.12170306279E+04  0.12170306279E+04  0.00000000000E+00 0. -1.
        6    1    1    2  501    0  0.12747212016E+02 -0.11598084199E+03 -0.33402300472E+03  0.39384567385E+03  0.17300000000E+03 0. -1.
       -6    1    1    2    0  504 -0.99758699325E+02 -0.50705082352E+02 -0.38502855979E+03  0.43669073189E+03  0.17300000000E+03 0.  1.
        6    1    1    2  502    0  0.23100299788E+03  0.20079210881E+03 -0.89560888901E+01  0.35169456566E+03  0.17300000000E+03 0. -1.
       -6    1    1    2    0  503 -0.14399151057E+03 -0.34106184464E+02 -0.21244248400E+03  0.31138014700E+03  0.17300000000E+03 0. -1.
</event>
<event>
 6   0  0.4500850E-05  0.3008035E+03  0.7546771E-02  0.1090737E+00
       21   -1    0    0  502  503  0.00000000000E+00  0.00000000000E+00  0.10626691398E+04  0.10626691398E+04  0.00000000000E+00 0.  1.
       21   -1    0    0  501  504  0.00000000000E+00  0.00000000000E+00 -0.73620369991E+03  0.73620369991E+03  0.00000000000E+00 0. -1.
        6    1    1    2  501    0  0.20180802430E+03  0.13632177177E+03  0.39946054560E+03  0.49880640696E+03  0.17300000000E+03 0.  1.
       -6    1    1    2    0  504 -0.12347110589E+02 -0.17198262902E+03 -0.39586784003E+03  0.46515677206E+03  0.17300000000E+03 0.  1.
        6    1    1    2  502    0  0.10456153419E+02 -0.25905879463E+03  0.30876942248E+03  0.43873493875E+03  0.17300000000E+03 0. -1.
       -6    1    1    2    0  503 -0.19991706712E+03  0.29471965187E+03  0.14103311857E+02  0.39617472198E+03  0.17300000000E+03 0. -1.
</event>
<event>
 6   0  0.4500850E-05  0.2007107E+03  0.7546771E-02  0.1151784E+00
       21   -1    0    0  502  503  0.00000000000E+00  0.00000000000E+00  0.22039789330E+04  0.22039789330E+04  0.00000000000E+00 0.  1.
       21   -1    0    0  501  504  0.00000000000E+00  0.00000000000E+00 -0.41031387128E+03  0.41031387128E+03  0.00000000000E+00 0. -1.
        6    1    1    2  501    0  0.66525727995E+02  0.82198916563E+02 -0.17211526450E+03  0.26596052084E+03  0.17300000000E+03 0. -1.
       -6    1    1    2    0  503 -0.10549122067E+03 -0.66136184061E+02 -0.46941712576E+02  0.21825424820E+03  0.17300000000E+03 0. -1.
        6    1    1    2  502    0  0.52161403443E+02 -0.68942829188E+02  0.19136593742E+04  0.19234071659E+04  0.17300000000E+03 0.  1.
       -6    1    1    2    0  504 -0.13195910771E+02  0.52880096686E+02  0.99062664633E+02  0.20667086928E+03  0.17300000000E+03 0. -1.
</event>
<event>
 6   0  0.4500850E-05  0.4465840E+03  0.7546771E-02  0.1039651E+00
       21   -1    0    0  501  503  0.00000000000E+00  0.00000000000E+00  0.28242099722E+03  0.28242099722E+03  0.00000000000E+00 0.  1.
       21   -1    0    0  502  504  0.00000000000E+00  0.00000000000E+00 -0.25111219523E+04  0.25111219523E+04  0.00000000000E+00 0.  1.
        6    1    1    2  501    0  0.28357766945E+03  0.50079863174E+00 -0.23886034251E+03  0.40914521705E+03  0.17300000000E+03 0.  1.
       -6    1    1    2    0  504 -0.22749790891E+03  0.15090945521E+02 -0.19976590875E+03  0.34902500411E+03  0.17300000000E+03 0. -1.
        6    1    1    2  502    0 -0.31996037461E+03 -0.90493201989E+02 -0.16321976335E+04  0.16746825896E+04  0.17300000000E+03 0.  1.
       -6    1    1    2    0  503  0.26388061407E+03  0.74901457836E+02 -0.15787707024E+03  0.36069013873E+03  0.17300000000E+03 0.  1.
</event>
<event>
 6   0  0.4500850E-05  0.8305514E+03  0.7546771E-02  0.9706228E-01
       21   -1    0    0  501  503  0.00000000000E+00  0.00000000000E+00  0.22040368215E+04  0.22040368215E+04  0.00000000000E+00 0. -1.
       21   -1    0    0  502  504  0.00000000000E+00  0.00000000000E+00 -0.64267254548E+03  0.64267254548E+03  0.00000000000E+00 0.  1.
        6    1    1    2  501    0 -0.84685797717E+03 -0.12671055512E+03 -0.56547844624E+02  0.87541456294E+03  0.17300000000E+03 0.  1.
       -6    1    1    2    0  504  0.37949167021E+03  0.15290857814E+03  0.82119859603E+03  0.93364398737E+03  0.17300000000E+03 0. -1.
        6    1    1    2  502    0  0.98608365761E+02  0.57051547762E+02  0.45340887423E+03  0.49848480030E+03  0.17300000000E+03 0.  1.
       -6    1    1    2    0  503  0.36875794119E+03 -0.83249570781E+02  0.34330465034E+03  0.53916601634E+03  0.17300000000E+03 0. -1.
</event>
<event>
 6   0  0.4500850E-05  0.3320454E+03  0.7546771E-02  0.1083658E+00
       21   -1    0    0  501  503  0.00000000000E+00  0.00000000000E+00  0.11263327692E+04  0.11263327692E+04  0.00000000000E+00 0. -1.
       21   -1    0    0  503  504  0.00000000000E+00  0.00000000000E+00 -0.82755549213E+03  0.82755549213E+03  0.00000000000E+00 0.  1.
        6    1    1    2  501    0 -0.37465386100E+02  0.10517466058E+03  0.78690705057E+02  0.22042366354E+03  0.17300000000E+03 0.  1.
       -6    1    1    2    0  502  0.31631763173E+03  0.35323199480E+02  0.66439766076E+03  0.75674158349E+03  0.17300000000E+03 0. -1.
        6    1    1    2  502    0 -0.47235738115E+03  0.26116204830E+02 -0.43910676105E+03  0.66824194666E+03  0.17300000000E+03 0.  1.
       -6    1    1    2    0  504  0.19350513552E+03 -0.16661406490E+03 -0.52043276500E+01  0.30848106768E+03  0.17300000000E+03 0. -1.
</event>
<event>
 6   0  0.4500850E-05  0.2247187E+03  0.7546771E-02  0.1130755E+00
       21   -1    0    0  501  503  0.00000000000E+00  0.00000000000E+00  0.31245607392E+03  0.31245607392E+03  0.00000000000E+00 0. -1.
       21   -1    0    0  502  504  0.00000000000E+00  0.00000000000E+00 -0.10268340353E+04  0.10268340353E+04  0.00000000000E+00 0. -1.
        6    1    1    2  501    0 -0.65700809272E+01 -0.44038948512E+02  0.84466051493E+02  0.19760088260E+03  0.17300000000E+03 0. -1.
       -6    1    1    2    0  504 -0.20774397317E+03  0.12652106946E+03 -0.23831294370E+03  0.38195182751E+03  0.17300000000E+03 0. -1.
        6    1    1    2  502    0  0.32204489260E+02  0.91584163113E+01 -0.49574773482E+02  0.18305098711E+03  0.17300000000E+03 0. -1.
       -6    1    1    2    0  503  0.18210956483E+03 -0.91640537257E+02 -0.51095629565E+03  0.57668641196E+03  0.17300000000E+03 0. -1.
</event>
<event>
 6   0  0.4500850E-05  0.3564938E+03  0.7546771E-02  0.1072696E+00
       21   -1    0    0  501  503  0.00000000000E+00  0.00000000000E+00  0.87721240000E+03  0.87721240000E+03  0.00000000000E+00 0.  1.
       21   -1    0    0  503  504  0.00000000000E+00  0.00000000000E+00 -0.58473136836E+03  0.58473136836E+03  0.00000000000E+00 0. -1.
        6    1    1    2  501    0 -0.12863099494E+03 -0.14809190606E+03  0.29604734126E+03  0.39503186425E+03  0.17300000000E+03 0. -1.
       -6    1    1    2    0  502  0.55694155765E+02  0.17286719367E+03  0.10209456152E+03  0.27080842883E+03  0.17300000000E+03 0.  1.
        6    1    1    2  502    0  0.20207431936E+03 -0.26104075654E+03 -0.24608173421E+03  0.44661115865E+03  0.17300000000E+03 0. -1.
       -6    1    1    2    0  504 -0.12913748018E+03  0.23626546894E+03  0.14042086307E+03  0.34949231663E+03  0.17300000000E+03 0.  1.
</event>
<event>
 6   0  0.4500850E-05  0.2110630E+03  0.7546771E-02  0.1143034E+00
       21   -1    0    0  501  503  0.00000000000E+00  0.00000000000E+00  0.68372149353E+03  0.68372149353E+03  0.00000000000E+00 0. -1.
       21   -1    0    0  502  504  0.00000000000E+00  0.00000000000E+00 -0.59630192504E+03  0.59630192504E+03  0.00000000000E+00 0. -1.
        6    1    1    2  501    0 -0.12292714205E+03  0.92361913700E+02  0.47382913231E+03  0.52733751240E+03  0.17300000000E+03 0. -1.
       -6    1    1    2    0  503  0.23768766350E+02 -0.10203068727E+02 -0.21919052048E+03  0.28043277472E+03  0.17300000000E+03 0. -1.
        6    1    1    2  502    0  0.15069049550E+03 -0.37777981196E+02 -0.16715674855E+03  0.28636546559E+03  0.17300000000E+03 0. -1.
       -6    1    1    2    0  504 -0.51532119801E+02 -0.44380863776E+02 -0.62294797357E-01  0.18588766587E+03  0.17300000000E+03 0. -1.
</event>
<event>
 6   0  0.4500850E-05  0.2366948E+03  0.7546771E-02  0.1124371E+00
       21   -1    0    0  502  503  0.00000000000E+00  0.00000000000E+00  0.82950145779E+03  0.82950145779E+03  0.00000000000E+00 0.  1.
       21   -1    0    0  501  504  0.00000000000E+00  0.00000000000E+00 -0.87715899442E+03  0.87715899442E+03  0.00000000000E+00 0.  1.
        6    1    1    2  501    0 -0.12727355729E+03 -0.16146732781E+02 -0.47612163309E+03  0.52257065060E+03  0.17300000000E+03 0.  1.
       -6    1    1    2    0  503  0.27142194786E+02  0.99356489185E+02  0.54861772195E+03  0.58439611183E+03  0.17300000000E+03 0.  1.
        6    1    1    2  502    0  0.26532182072E+03  0.13935118282E+02 -0.12672590525E+03  0.34143566178E+03  0.17300000000E+03 0. -1.
       -6    1    1    2    0  504 -0.16519045822E+03 -0.97144874686E+02  0.65722797674E+01  0.25825802800E+03  0.17300000000E+03 0.  1.
</event>
<event>
 6   0  0.4500850E-05  0.3421185E+03  0.7546771E-02  0.1080625E+00
       21   -1    0    0  502  503  0.00000000000E+00  0.00000000000E+00  0.10472198703E+04  0.10472198703E+04  0.00000000000E+00 0. -1.
       21   -1    0    0  501  504  0.00000000000E+00  0.00000000000E+00 -0.58294537338E+03  0.58294537338E+03  0.00000000000E+00 0. -1.
        6    1    1    2  501    0  0.41049044992E+03 -0.23277586321E+03 -0.13409451796E+03  0.52018972666E+03  0.17300000000E+03 0. -1.
       -6    1    1    2    0  504 -0.88958627060E+02  0.10572361067E+02  0.36478086555E+03  0.41354503022E+03  0.17300000000E+03 0. -1.
        6    1    1    2  502    0 -0.20161419418E+03 -0.76078588233E+02  0.28803237180E+02  0.27783963244E+03  0.17300000000E+03 0. -1.
       -6    1    1    2    0  503 -0.11991762868E+03  0.29828209038E+03  0.20478491215E+03  0.41859085436E+03  0.17300000000E+03 0. -1.
</event>
<event>
 6   0  0.4500850E-05  0.3693152E+03  0.7546771E-02  0.1080668E+00
       21   -1    0    0  502  503  0.00000000000E+00  0.00000000000E+00  0.11005622202E+04  0.11005622202E+04  0.00000000000E+00 0. -1.
       21   -1    0    0  503  504  0.00000000000E+00  0.00000000000E+00 -0.44192138759E+03  0.44192138759E+03  0.00000000000E+00 0. -1.
        6    1    1    2  501    0  0.26674069161E+02  0.36136040569E+03  0.24569381764E+03  0.47073060320E+03  0.17300000000E+03 0. -1.
       -6    1    1    2    0  501  0.44540414727E+02 -0.14693709342E+02  0.33799691582E+02  0.18240387274E+03  0.17300000000E+03 0.  1.
        6    1    1    2  502    0 -0.33906708183E+03 -0.19107670737E+03  0.98974806976E+02  0.43726628786E+03  0.17300000000E+03 0. -1.
       -6    1    1    2    0  504  0.26785259794E+03 -0.15558998897E+03  0.28017251644E+03  0.45208284402E+03  0.17300000000E+03 0.  1.
</event>
<event>
 6   0  0.4500850E-05  0.3414628E+03  0.7546771E-02  0.1075058E+00
       21   -1    0    0  502  503  0.00000000000E+00  0.00000000000E+00  0.17373802302E+04  0.17373802302E+04  0.00000000000E+00 0. -1.
       21   -1    0    0  501  504  0.00000000000E+00  0.00000000000E+00 -0.68782343251E+03  0.68782343251E+03  0.00000000000E+00 0. -1.
        6    1    1    2  501    0 -0.20389095967E+02  0.21172024054E+03 -0.68633578817E+02  0.28263181638E+03  0.17300000000E+03 0.  1.
       -6    1    1    2    0  504  0.33910736058E+03 -0.10200750601E+02  0.71271308746E+03  0.80807598798E+03  0.17300000000E+03 0.  1.
        6    1    1    2  502    0  0.79695871778E+02 -0.85711658682E+02  0.74335841878E+03  0.77214549095E+03  0.17300000000E+03 0. -1.
       -6    1    1    2    0  503 -0.39841413639E+03 -0.11580783125E+03 -0.33788112976E+03  0.56235036739E+03  0.17300000000E+03 0. -1.
</event>
<event>
 6   0  0.4500850E-05  0.3849382E+03  0.7546771E-02  0.1055343E+00
       21   -1    0    0  502  503  0.00000000000E+00  0.00000000000E+00  0.21548669932E+04  0.21548669932E+04  0.00000000000E+00 0. -1.
       21   -1    0    0  501  504  0.00000000000E+00  0.00000000000E+00 -0.10073105294E+04  0.10073105294E+04  0.00000000000E+00 0. -1.
        6    1    1    2  501    0  0.26404461543E+03 -0.42575272095E+03 -0.52123830694E+03  0.74337292858E+03  0.17300000000E+03 0. -1.
       -6    1    1    2    0  504 -0.11595323807E+03  0.18722871296E+02  0.36050534952E+03  0.41675989054E+03  0.17300000000E+03 0.  1.
        6    1    1    2  502    0 -0.41698963134E+03  0.42893542226E+03 -0.32406316878E+02  0.62357446908E+03  0.17300000000E+03 0. -1.
       -6    1    1    2    0  503  0.26889825398E+03 -0.21905572609E+02  0.13406957381E+04  0.13784702345E+04  0.17300000000E+03 0.  1.
</event>
<event>
 6   0  0.4500850E-05  0.3911168E+03  0.7546771E-02  0.1073112E+00
       21   -1    0    0  502  503  0.00000000000E+00  0.00000000000E+00  0.16298296995E+04  0.16298296995E+04  0.00000000000E+00 0.  1.
       21   -1    0    0  501  504  0.00000000000E+00  0.00000000000E+00 -0.94439215522E+03  0.94439215522E+03  0.00000000000E+00 0.  1.
        6    1    1    2  501    0 -0.67174145003E+02 -0.89442158936E+01 -0.40712646473E+03  0.44751907561E+03  0.17300000000E+03 0. -1.
       -6    1    1    2    0  503 -0.86264096917E+02 -0.70835255409E+02 -0.43895438247E+03  0.48483922873E+03  0.17300000000E+03 0.  1.
        6    1    1    2  502    0  0.44736781056E+02 -0.57757847473E+02  0.12654084426E+04  0.12792673196E+04  0.17300000000E+03 0.  1.
       -6    1    1    2    0  504  0.10870146086E+03  0.13753731878E+03  0.26610994888E+03  0.36259623074E+03  0.17300000000E+03 0. -1.
</event>
<event>
 6   0  0.4500850E-05  0.4696764E+03  0.7546771E-02  0.1049270E+00
       21   -1    0    0  501  503  0.00000000000E+00  0.00000000000E+00  0.13047011241E+04  0.13047011241E+04  0.00000000000E+00 0. -1.
       21   -1    0    0  503  504  0.00000000000E+00  0.00000000000E+00 -0.24958786924E+03  0.24958786924E+03  0.00000000000E+00 0. -1.
        6    1    1    2  501    0  0.13115416221E+03 -0.36828699340E+02  0.27477452409E+03  0.35211902313E+03  0.17300000000E+03 0. -1.
       -6    1    1    2    0  504 -0.14341877284E+03  0.20255227624E+03  0.19461387143E+03  0.35972201485E+03  0.17300000000E+03 0. -1.
        6    1    1    2  502    0 -0.11641984913E+03 -0.32454616997E+02  0.75715698611E+01  0.21117104940E+03  0.17300000000E+03 0. -1.
       -6    1    1    2    0  502  0.12868445976E+03 -0.13326895991E+03  0.57815328944E+03  0.63127690592E+03  0.17300000000E+03 0. -1.
</event>
<event>
 6   0  0.4500850E-05  0.3338387E+03  0.7546771E-02  0.1084070E+00
       21   -1    0    0  501  503  0.00000000000E+00  0.00000000000E+00  0.17667025661E+04  0.17667025661E+04  0.00000000000E+00 0. -1.
       21   -1    0    0  503  504  0.00000000000E+00  0.00000000000E+00 -0.30960402226E+03  0.30960402226E+03  0.00000000000E+00 0.  1.
        6    1    1    2  501    0  0.52220902280E+02  0.10919502242E+03  0.71638206957E+03  0.74684860926E+03  0.17300000000E+03 0. -1.
       -6    1    1    2    0  504 -0.12609304673E+03  0.34116309650E+03  0.27244362685E+03  0.48625738519E+03  0.17300000000E+03 0. -1.
        6    1    1    2  502    0 -0.15032994086E+03 -0.24991312034E+03  0.14433880818E+03  0.36853541266E+03  0.17300000000E+03 0.  1.
       -6    1    1    2    0  502  0.22420208531E+03 -0.20044499858E+03  0.32393403925E+03  0.47466518126E+03  0.17300000000E+03 0.  1.
</event>
<event>
 6   0  0.4500850E-05  0.4071504E+03  0.7546771E-02  0.1066755E+00
       21   -1    0    0  501  503  0.00000000000E+00  0.00000000000E+00  0.24232831903E+03  0.24232831903E+03  0.00000000000E+00 0.  1.
       21   -1    0    0  503  504  0.00000000000E+00  0.00000000000E+00 -0.23806214177E+04  0.23806214177E+04  0.00000000000E+00 0.  1.
        6    1    1    2  501    0 -0.21330967866E+03 -0.20093603832E+02 -0.41278359111E+03  0.49620969863E+03  0.17300000000E+03 0. -1.
       -6    1    1    2    0  502  0.96539012996E+02 -0.64631030320E+01 -0.38278565807E+02  0.20188066111E+03  0.17300000000E+03 0. -1.
        6    1    1    2  502    0  0.25390055331E+03 -0.28666431800E+03 -0.13517545758E+04  0.14155604386E+04  0.17300000000E+03 0.  1.
       -6    1    1    2    0  504 -0.13712988764E+03  0.31322102486E+03 -0.33547636589E+03  0.50929893832E+03  0.17300000000E+03 0.  1.
</event>
<event>
 6   0  0.4500850E-05  0.4577109E+03  0.7546771E-02  0.1025447E+00
        2   -1    0    0  503    0  0.00000000000E+00  0.00000000000E+00  0.10083410603E+04  0.10083410603E+04  0.00000000000E+00 0. -1.
       -2   -1    0    0    0  501  0.00000000000E+00  0.00000000000E+00 -0.24008113594E+03  0.24008113594E+03  0.00000000000E+00 0.  1.
        6    1    1    2  502    0  0.12654202021E+03  0.81218824833E+02  0.22152237997E+03  0.31876409022E+03  0.17300000000E+03 0. -1.
       -6    1    1    2    0  501 -0.14011461931E+03 -0.22227444176E+03  0.29664359229E+03  0.43239386542E+03  0.17300000000E+03 0.  1.
        6    1    1    2  503    0  0.91988541798E+02  0.13018089751E+03  0.17290477116E+03  0.29194865608E+03  0.17300000000E+03 0. -1.
       -6    1    1    2    0  502 -0.78415942703E+02  0.10874719414E+02  0.77189180960E+02  0.20531558453E+03  0.17300000000E+03 0.  1.
</event>
<event>
 6   0  0.4500850E-05  0.6105950E+03  0.7546771E-02  0.9886413E-01
       21   -1    0    0  502  503  0.00000000000E+00  0.00000000000E+00  0.13775949232E+04  0.13775949232E+04  0.00000000000E+00 0.  1.
       21   -1    0    0  503  504  0.00000000000E+00  0.00000000000E+00 -0.81517606997E+03  0.81517606997E+03  0.00000000000E+00 0. -1.
        6    1    1    2  501    0 -0.56387985004E+03 -0.40653491059E+03  0.43078091898E+03  0.83590209892E+03  0.17300000000E+03 0.  1.
       -6    1    1    2    0  504  0.58757887840E+03 -0.89241626384E+02 -0.21146938997E+03  0.65411108317E+03  0.17300000000E+03 0. -1.
        6    1    1    2  502    0  0.20101759052E+02  0.19127297654E+03  0.11960345744E+03  0.28499722683E+03  0.17300000000E+03 0. -1.
       -6    1    1    2    0  501 -0.43800787412E+02  0.30450356044E+03  0.22350386681E+03  0.41776058428E+03  0.17300000000E+03 0. -1.
</event>
<event>
 6   0  0.4500850E-05  0.3737649E+03  0.7546771E-02  0.1066285E+00
       21   -1    0    0  502  503  0.00000000000E+00  0.00000000000E+00  0.58450064708E+03  0.58450064708E+03  0.00000000000E+00 0.  1.
       21   -1    0    0  501  504  0.00000000000E+00  0.00000000000E+00 -0.18902427045E+04  0.18902427045E+04  0.00000000000E+00 0.  1.
        6    1    1    2  501    0 -0.18330245044E+03  0.66015473362E+02 -0.86391838647E+02  0.27450023834E+03  0.17300000000E+03 0. -1.
       -6    1    1    2    0  503 -0.39013683418E+03 -0.29954515404E+03 -0.12107713652E+04  0.13182679346E+04  0.17300000000E+03 0.  1.
        6    1    1    2  502    0  0.59199802088E+03  0.17683127061E+03  0.12721528972E+03  0.65409761116E+03  0.17300000000E+03 0.  1.
       -6    1    1    2    0  504 -0.18558736252E+02  0.56698410073E+02 -0.13579414329E+03  0.22787756745E+03  0.17300000000E+03 0.  1.
</event>
<event>
 6   0  0.4500850E-05  0.3362092E+03  0.7546771E-02  0.1075963E+00
       21   -1    0    0  501  503  0.00000000000E+00  0.00000000000E+00  0.17746836565E+04  0.17746836565E+04  0.00000000000E+00 0. -1.
       21   -1    0    0  502  504  0.00000000000E+00  0.00000000000E+00 -0.13218924331E+04  0.13218924331E+04  0.00000000000E+00 0.  1.
        6    1    1    2  501    0  0.39523880075E+03  0.15992469807E+03  0.52399843496E+01  0.46015875098E+03  0.17300000000E+03 0.  1.
       -6    1    1    2    0  504 -0.51128154736E+03 -0.14665080684E+03 -0.54657824660E+03  0.78204351508E+03  0.17300000000E+03 0.  1.
        6    1    1    2  502    0  0.13247964801E+03 -0.84560377311E+02 -0.39155836042E+03  0.45601344735E+03  0.17300000000E+03 0.  1.
       -6    1    1    2    0  503 -0.16436901398E+02  0.71286486079E+02  0.13856878461E+04  0.13983603762E+04  0.17300000000E+03 0. -1.
</event>
<event>
 6   0  0.4500850E-05  0.2408861E+03  0.7546771E-02  0.1131992E+00
       21   -1    0    0  502  503  0.00000000000E+00  0.00000000000E+00  0.17784703389E+03  0.17784703389E+03  0.00000000000E+00 0. -1.
       21   -1    0    0  503  504  0.00000000000E+00  0.00000000000E+00 -0.11095571557E+04  0.11095571557E+04  0.00000000000E+00 0.  1.
        6    1    1    2  501    0 -0.12796026346E+03  0.17843450797E+03 -0.29037933130E+03  0.40306557619E+03  0.17300000000E+03 0.  1.
       -6    1    1    2    0  504  0.11105422699E+03 -0.83304583686E+02 -0.32001027807E+03  0.38936907051E+03  0.17300000000E+03 0. -1.
        6    1    1    2  502    0 -0.12018470267E+02 -0.10151996025E+03 -0.16841922639E+03  0.26219226109E+03  0.17300000000E+03 0. -1.
       -6    1    1    2    0  501  0.28924506742E+02  0.63900359605E+01 -0.15290128603E+03  0.23277728179E+03  0.17300000000E+03 0. -1.
</event>
<event>
 6   0  0.4500850E-05  0.3168270E+03  0.7546771E-02  0.1090100E+00
       21   -1    0    0  504  503  0.00000000000E+00  0.00000000000E+00  0.15263405202E+04  0.15263405202E+04  0.00000000000E+00 0.  1.
       21   -1    0    0  501  504  0.00000000000E+00  0.00000000000E+00 -0.26333310785E+04  0.26333310785E+04  0.00000000000E+00 0. -1.
        6    1    1    2  501    0  0.11603166507E+03  0.30075791710E+03 -0.41912429795E+03  0.55633878989E+03  0.17300000000E+03 0. -1.
       -6    1    1    2    0  503  0.10888468989E+03 -0.24349370485E+03  0.13569310881E+04  0.13936771641E+04  0.17300000000E+03 0.  1.
        6    1    1    2  502    0  0.33235812432E+02 -0.13813431269E+03 -0.11191008441E+03  0.25027699567E+03  0.17300000000E+03 0.  1.
       -6    1    1    2    0  502 -0.25815216740E+03  0.80870100436E+02 -0.19328872640E+04  0.19593786490E+04  0.17300000000E+03 0. -1.
</event>
<event>
 6   0  0.4500850E-05  0.4476940E+03  0.7546771E-02  0.1059231E+00
       21   -1    0    0  502  503  0.00000000000E+00  0.00000000000E+00  0.19376443907E+04  0.19376443907E+04  0.00000000000E+00 0.  1.
       21   -1    0    0  501  504  0.00000000000E+00  0.00000000000E+00 -0.51812895662E+03  0.51812895662E+03  0.00000000000E+00 0.  1.
        6    1    1    2  501    0  0.10368656494E+03  0.60340444525E+02 -0.35771273103E+03  0.41506538152E+03  0.17300000000E+03 0.  1.
       -6    1    1    2    0  503  0.35845088976E+02  0.12616550746E+02 -0.29725864598E+02  0.17960143313E+03  0.17300000000E+03 0.  1.
        6    1    1    2  502    0 -0.61747892445E+02 -0.67998784829E+01  0.13430996146E+04  0.13556196425E+04  0.17300000000E+03 0.  1.
       -6    1    1    2    0  504 -0.77783761468E+02 -0.66157116787E+02  0.46385441514E+03  0.50548689013E+03  0.17300000000E+03 0. -1.
</event>
<event>
 6   0  0.4500850E-05  0.1895409E+03  0.7546771E-02  0.1160347E+00
       21   -1    0    0  504  503  0.00000000000E+00  0.00000000000E+00  0.90369821137E+03  0.90369821137E+03  0.00000000000E+00 0.  1.
       21   -1    0    0  502  504  0.00000000000E+00  0.00000000000E+00 -0.52513591273E+03  0.52513591273E+03  0.00000000000E+00 0.  1.
        6    1    1    2  501    0 -0.32272780855E+02  0.81661024370E+02  0.27361334684E+03  0.33541514404E+03  0.17300000000E+03 0. -1.
       -6    1    1    2    0  501  0.29316582139E+01 -0.83953051731E+02 -0.12172610105E+03  0.22760262123E+03  0.17300000000E+03 0. -1.
        6    1    1    2  502    0 -0.25497826740E+02 -0.18845595295E+02 -0.27806721436E+03  0.32902229610E+03  0.17300000000E+03 0.  1.
       -6    1    1    2    0  503  0.54838949381E+02  0.21137622657E+02  0.50474226721E+03  0.53679406272E+03  0.17300000000E+03 0.  1.
</event>
<event>
 6   0  0.4500850E-05  0.2101129E+03  0.7546771E-02  0.1148794E+00
       21   -1    0    0  504  503  0.00000000000E+00  0.00000000000E+00  0.43092088711E+03  0.43092088711E+03  0.00000000000E+00 0.  1.
       21   -1    0    0  501  504  0.00000000000E+00  0.00000000000E+00 -0.72427208942E+03  0.72427208942E+03  0.00000000000E+00 0.  1.
        6    1    1    2  501    0  0.14292821291E+03 -0.91682210837E+02 -0.20068599043E+03  0.31470298470E+03  0.17300000000E+03 0.  1.
       -6    1    1    2    0  503 -0.14284003167E+02  0.31373161979E+02 -0.23058846535E+03  0.29032455699E+03  0.17300000000E+03 0.  1.
        6    1    1    2  502    0 -0.15856029465E+02  0.44161081822E+02 -0.12271687331E+03  0.21723269969E+03  0.17300000000E+03 0.  1.
       -6    1    1    2    0  502 -0.11278818027E+03  0.16147967035E+02  0.26064012678E+03  0.33293273515E+03  0.17300000000E+03 0.  1.
</event>
<event>
 6   0  0.4500850E-05  0.2581593E+03  0.7546771E-02  0.1115988E+00
       21   -1    0    0  502  503  0.00000000000E+00  0.00000000000E+00  0.10628826515E+04  0.10628826515E+04  0.00000000000E+00 0. -1.
       21   -1    0    0  501  504  0.00000000000E+00  0.00000000000E+00 -0.46922139084E+03  0.46922139084E+03  0.00000000000E+00 0. -1.
        6    1    1    2  501    0  0.48525797086E+02 -0.57030253207E+02 -0.18163505731E+03  0.26177757125E+03  0.17300000000E+03 0. -1.
       -6    1    1    2    0  504 -0.16728022499E+03  0.96160679721E+02  0.19340371062E+03  0.32336286936E+03  0.17300000000E+03 0.  1.
        6    1    1    2  502    0  0.25771978788E+03  0.23239093889E+02 -0.10355702044E+02  0.31144146339E+03  0.17300000000E+03 0. -1.
       -6    1    1    2    0  503 -0.13896535997E+03 -0.62369520403E+02  0.59224830943E+03  0.63552213838E+03  0.17300000000E+03 0. -1.
</event>
<event>
 6   0  0.4500850E-05  0.2870600E+03  0.7546771E-02  0.1107182E+00
       21   -1    0    0  502  503  0.00000000000E+00  0.00000000000E+00  0.63020553736E+03  0.63020553736E+03  0.00000000000E+00 0.  1.
       21   -1    0    0  501  504  0.00000000000E+00  0.00000000000E+00 -0.10643810589E+04  0.10643810589E+04  0.00000000000E+00 0. -1.
        6    1    1    2  501    0 -0.49533161455E+02  0.24456436891E+03  0.33225198948E+03  0.45009515564E+03  0.17300000000E+03 0.  1.
       -6    1    1    2    0  503 -0.68210001087E+02 -0.19908249989E+03  0.53343668012E+02  0.27759861838E+03  0.17300000000E+03 0.  1.
        6    1    1    2  502    0  0.32293759525E+02 -0.79214672060E+02 -0.93085397028E+02  0.21427025532E+03  0.17300000000E+03 0.  1.
       -6    1    1    2    0  504  0.85449403017E+02  0.33732803040E+02 -0.72668578195E+03  0.75262256687E+03  0.17300000000E+03 0. -1.
</event>
<event>
 6   0  0.4500850E-05  0.7527736E+03  0.7546771E-02  0.9631009E-01
        2   -1    0    0  502    0  0.00000000000E+00  0.00000000000E+00  0.14363436939E+04  0.14363436939E+04  0.00000000000E+00 0. -1.
       -2   -1    0    0    0  501  0.00000000000E+00  0.00000000000E+00 -0.71094251520E+03  0.71094251520E+03  0.00000000000E+00 0.  1.
        6    1    1    2  502    0  0.48751676974E+03 -0.14267194037E+03  0.92804209228E+03  0.10720163284E+04  0.17300000000E+03 0. -1.
       -6    1    1    2    0  501 -0.14436846994E+03  0.32072678571E+03 -0.10785199001E+03  0.40653287436E+03  0.17300000000E+03 0.  1.
        6    1    1    2  503    0 -0.20062797663E+03 -0.30530398141E+03 -0.55241862641E+02  0.40797398135E+03  0.17300000000E+03 0.  1.
       -6    1    1    2    0  503 -0.14252032317E+03  0.12724913607E+03 -0.39547060961E+02  0.26076302494E+03  0.17300000000E+03 0. -1.
</event>
<event>
 6   0  0.4500850E-05  0.2426412E+03  0.7546771E-02  0.1123693E+00
       21   -1    0    0  504  503  0.00000000000E+00  0.00000000000E+00  0.57113183267E+03  0.57113183267E+03  0.00000000000E+00 0.  1.
       21   -1    0    0  502  504  0.00000000000E+00  0.00000000000E+00 -0.65438821131E+03  0.65438821131E+03  0.00000000000E+00 0.  1.
        6    1    1    2  501    0 -0.32186251875E+01  0.26430280706E+03 -0.14194365683E+03  0.34632836309E+03  0.17300000000E+03 0.  1.
       -6    1    1    2    0  501  0.49202854002E+02 -0.19561535923E+03 -0.12931807359E+02  0.26604984730E+03  0.17300000000E+03 0. -1.
        6    1    1    2  502    0  0.28649473818E+02  0.72227982071E+01 -0.20505536784E+03  0.26990677102E+03  0.17300000000E+03 0.  1.
       -6    1    1    2    0  503 -0.74633702633E+02 -0.75910246033E+02  0.27667445338E+03  0.34323506256E+03  0.17300000000E+03 0.  1.
</event>
<event>
 6   0  0.4500850E-05  0.4787506E+03  0.7546771E-02  0.1019516E+00
       -2   -1    0    0    0  501  0.00000000000E+00  0.00000000000E+00  0.41844431724E+03  0.41844431724E+03  0.00000000000E+00 0. -1.
        2   -1    0    0  502    0  0.00000000000E+00  0.00000000000E+00 -0.79966174457E+03  0.79966174457E+03  0.00000000000E+00 0.  1.
        6    1    1    2  502    0  0.27307069128E+02 -0.19853144516E+03 -0.18853044887E+03  0.32501252421E+03  0.17300000000E+03 0.  1.
       -6    1    1    2    0  501 -0.51825594946E+02  0.22030234145E+03  0.13862338070E+03  0.31680349685E+03  0.17300000000E+03 0. -1.
        6    1    1    2  503    0 -0.31261748433E+02 -0.57335718790E+02  0.12949144890E+02  0.18536817936E+03  0.17300000000E+03 0. -1.
       -6    1    1    2    0  503  0.55780274251E+02  0.35564822499E+02 -0.34425950404E+03  0.39092186140E+03  0.17300000000E+03 0.  1.
</event>
<event>
 6   0  0.4500850E-05  0.2762139E+03  0.7546771E-02  0.1109778E+00
       21   -1    0    0  504  503  0.00000000000E+00  0.00000000000E+00  0.17262975268E+04  0.17262975268E+04  0.00000000000E+00 0. -1.
       21   -1    0    0  502  504  0.00000000000E+00  0.00000000000E+00 -0.20853453253E+04  0.20853453253E+04  0.00000000000E+00 0. -1.
        6    1    1    2  501    0  0.17813103676E+03  0.12646874139E+03 -0.17328796000E+03  0.32815046227E+03  0.17300000000E+03 0. -1.
       -6    1    1    2    0  501  0.27896459281E+03 -0.85621562504E+02 -0.80073256525E+03  0.86962862020E+03  0.17300000000E+03 0. -1.
        6    1    1    2  502    0 -0.91092445278E+02  0.40805008985E+01 -0.96377686733E+03  0.98341717195E+03  0.17300000000E+03 0. -1.
       -6    1    1    2    0  503 -0.36600318430E+03 -0.44927679788E+02  0.15787495941E+04  0.16304465977E+04  0.17300000000E+03 0. -1.
</event>
<event>
 6   0  0.4500850E-05  0.3623239E+03  0.7546771E-02  0.1083890E+00
       21   -1    0    0  502  503  0.00000000000E+00  0.00000000000E+00  0.16069793097E+03  0.16069793097E+03  0.00000000000E+00 0. -1.
       21   -1    0    0  501  504  0.00000000000E+00  0.00000000000E+00 -0.28157170402E+04  0.28157170402E+04  0.00000000000E+00 0.  1.
        6    1    1    2  501    0 -0.20917389327E+03  0.17445124268E+03 -0.32591157520E+03  0.45862218498E+03  0.17300000000E+03 0. -1.
       -6    1    1    2    0  504  0.95440166089E+02 -0.33313513847E+03 -0.16571911905E+04  0.17018517820E+04  0.17300000000E+03 0. -1.
        6    1    1    2  502    0 -0.32084645024E+02 -0.14518525189E+02 -0.22644642572E+03  0.28713619720E+03  0.17300000000E+03 0.  1.
       -6    1    1    2    0  503  0.14581837220E+03  0.17320242097E+03 -0.44546991781E+03  0.52880480707E+03  0.17300000000E+03 0.  1.
</event>
<event>
 6   0  0.4500850E-05  0.6769692E+03  0.7546771E-02  0.1011671E+00
       21   -1    0    0  501  503  0.00000000000E+00  0.00000000000E+00  0.15512160982E+04  0.15512160982E+04  0.00000000000E+00 0. -1.
       21   -1    0    0  502  504  0.00000000000E+00  0.00000000000E+00 -0.80915154542E+03  0.80915154542E+03  0.00000000000E+00 0.  1.
        6    1    1    2  501    0  0.41420734647E+03  0.61903787195E+03  0.35951348784E+03  0.84495831892E+03  0.17300000000E+03 0. -1.
       -6    1    1    2    0  503  0.10606260612E+03 -0.14088158606E+03 -0.11666444666E+02  0.24730953002E+03  0.17300000000E+03 0.  1.
        6    1    1    2  502    0 -0.49000231450E+01 -0.12743392634E+03 -0.26718518133E+03  0.34289989346E+03  0.17300000000E+03 0.  1.
       -6    1    1    2    0  504 -0.51536992944E+03 -0.35072235955E+03  0.66140269100E+03  0.92519990127E+03  0.17300000000E+03 0. -1.
</event>
<event>
 6   0  0.4500850E-05  0.2350395E+03  0.7546771E-02  0.1125571E+00
       21   -1    0    0  502  503  0.00000000000E+00  0.00000000000E+00  0.22715738398E+04  0.22715738398E+04  0.00000000000E+00 0.  1.
       21   -1    0    0  501  504  0.00000000000E+00  0.00000000000E+00 -0.17859472931E+03  0.17859472931E+03  0.00000000000E+00 0. -1.
        6    1    1    2  501    0 -0.27336630054E+03  0.22533665418E+02  0.29589924628E+03  0.43900143997E+03  0.17300000000E+03 0. -1.
       -6    1    1    2    0  503  0.83915940957E+02 -0.10596447139E+03  0.11635638332E+04  0.11840946534E+04  0.17300000000E+03 0.  1.
        6    1    1    2  502    0  0.10003128412E+03  0.36591564218E+02  0.58739290360E+03  0.62153408883E+03  0.17300000000E+03 0.  1.
       -6    1    1    2    0  504  0.89419075466E+02  0.46839241754E+02  0.46123127482E+02  0.20553838696E+03  0.17300000000E+03 0. -1.
</event>
<event>
 6   0  0.4500850E-05  0.8384334E+03  0.7546771E-02  0.9739546E-01
       21   -1    0    0  501  503  0.00000000000E+00  0.00000000000E+00  0.10560727284E+04  0.10560727284E+04  0.00000000000E+00 0. -1.
       21   -1    0    0  502  504  0.00000000000E+00  0.00000000000E+00 -0.22667536580E+04  0.22667536580E+04  0.00000000000E+00 0.  1.
        6    1    1    2  501    0 -0.18663519095E+03  0.30453569083E+03  0.34675913216E+03  0.52701572768E+03  0.17300000000E+03 0. -1.
       -6    1    1    2    0  503 -0.14002141792E+02 -0.88133715304E+03 -0.80459731593E+03  0.12059258178E+04  0.17300000000E+03 0.  1.
        6    1    1    2  502    0  0.27185270796E+03  0.19792929607E+03 -0.10214398541E+04  0.10891961607E+04  0.17300000000E+03 0. -1.
       -6    1    1    2    0  504 -0.71215375221E+02  0.37887216614E+03  0.26859710822E+03  0.50068868021E+03  0.17300000000E+03 0. -1.
</event>
<event>
 6   0  0.4500850E-05  0.3014042E+03  0.7546771E-02  0.1092992E+00
       21   -1    0    0  501  503  0.00000000000E+00  0.00000000000E+00  0.14385645990E+03  0.14385645990E+03  0.00000000000E+00 0.  1.
       21   -1    0    0  502  504  0.00000000000E+00  0.00000000000E+00 -0.36952295733E+04  0.36952295733E+04  0.00000000000E+00 0.  1.
        6    1    1    2  501    0 -0.32291386107E+03  0.18617321068E+03 -0.19680017354E+04  0.20104461338E+04  0.17300000000E+03 0.  1.
       -6    1    1    2    0  504  0.82254586154E+02  0.11972528418E+03 -0.96985484426E+03  0.99581493238E+03  0.17300000000E+03 0.  1.
        6    1    1    2  502    0  0.20933632979E+03 -0.26827872372E+03 -0.44633559042E+03  0.58731561519E+03  0.17300000000E+03 0.  1.
       -6    1    1    2    0  503  0.31322945134E+02 -0.37619771131E+02 -0.16718094333E+03  0.24550935193E+03  0.17300000000E+03 0. -1.
</event>
<event>
 6   0  0.4500850E-05  0.3431824E+03  0.7546771E-02  0.1067766E+00
       21   -1    0    0  502  503  0.00000000000E+00  0.00000000000E+00  0.13784265057E+04  0.13784265057E+04  0.00000000000E+00 0.  1.
       21   -1    0    0  501  504  0.00000000000E+00  0.00000000000E+00 -0.10536738507E+04  0.10536738507E+04  0.00000000000E+00 0. -1.
        6    1    1    2  501    0  0.22985690402E+03 -0.95454081139E+02  0.47326709335E+03  0.56201104934E+03  0.17300000000E+03 0.  1.
       -6    1    1    2    0  504  0.19944649039E+03 -0.15409142882E+02 -0.47470768879E+03  0.54340844124E+03  0.17300000000E+03 0. -1.
        6    1    1    2  502    0  0.13415565350E+02 -0.22043976763E+03  0.61745788570E+03  0.67820123058E+03  0.17300000000E+03 0.  1.
       -6    1    1    2    0  503 -0.44271895976E+03  0.33130299165E+03 -0.29126463518E+03  0.64847963523E+03  0.17300000000E+03 0.  1.
</event>
<event>
 6   0  0.4500850E-05  0.2329198E+03  0.7546771E-02  0.1127353E+00
       21   -1    0    0  502  503  0.00000000000E+00  0.00000000000E+00  0.50799015598E+03  0.50799015598E+03  0.00000000000E+00 0.  1.
       21   -1    0    0  501  504  0.00000000000E+00  0.00000000000E+00 -0.22285628152E+04  0.22285628152E+04  0.00000000000E+00 0.  1.
        6    1    1    2  501    0  0.50476002843E+02 -0.20069243975E+03  0.88382138157E+02  0.28384094944E+03  0.17300000000E+03 0.  1.
       -6    1    1    2    0  503  0.10103976323E+03  0.10257688755E+03  0.25758334210E+03  0.34206611896E+03  0.17300000000E+03 0. -1.
        6    1    1    2  502    0 -0.38411497485E+02  0.12504286510E+03 -0.11955677619E+04  0.12150812461E+04  0.17300000000E+03 0.  1.
       -6    1    1    2    0  504 -0.11310426859E+03 -0.26927312910E+02 -0.87097037754E+03  0.89556465668E+03  0.17300000000E+03 0.  1.
</event>
<event>
 6   0  0.4500850E-05  0.3338264E+03  0.7546771E-02  0.1079172E+00
       21   -1    0    0  502  503  0.00000000000E+00  0.00000000000E+00  0.10752002592E+04  0.10752002592E+04  0.00000000000E+00 0. -1.
       21   -1    0    0  501  504  0.00000000000E+00  0.00000000000E+00 -0.61722034308E+03  0.61722034308E+03  0.00000000000E+00 0.  1.
        6    1    1    2  501    0  0.38752821545E+03 -0.22124121031E+03  0.48539966061E+02  0.48105188827E+03  0.17300000000E+03 0. -1.
       -6    1    1    2    0  504 -0.26888729400E+03  0.37658220771E+01 -0.64928949131E+02  0.32628105481E+03  0.17300000000E+03 0.  1.
        6    1    1    2  502    0 -0.14251164952E+03 -0.26307408717E+02  0.53364602216E+03  0.57940376852E+03  0.17300000000E+03 0. -1.
       -6    1    1    2    0  503  0.23870728071E+02  0.24378279695E+03 -0.59277122923E+02  0.30568389073E+03  0.17300000000E+03 0.  1.
</event>
<event>
 6   0  0.4500850E-05  0.2636235E+03  0.7546771E-02  0.1111328E+00
       21   -1    0    0  504  503  0.00000000000E+00  0.00000000000E+00  0.10223260588E+04  0.10223260588E+04  0.00000000000E+00 0.  1.
       21   -1    0    0  501  504  0.00000000000E+00  0.00000000000E+00 -0.55432900354E+03  0.55432900354E+03  0.00000000000E+00 0. -1.
        6    1    1    2  501    0  0.18774583746E+02 -0.16757935508E+03 -0.16431728072E+03  0.29217202807E+03  0.17300000000E+03 0. -1.
       -6    1    1    2    0  503  0.20914435430E+03 -0.22737474548E+02  0.26685903087E+03  0.38131495649E+03  0.17300000000E+03 0. -1.
        6    1    1    2  502    0 -0.10285575358E+03  0.23624391010E+03  0.54053084721E+03  0.62329213688E+03  0.17300000000E+03 0.  1.
       -6    1    1    2    0  502 -0.12506318447E+03 -0.45927080470E+02 -0.17507554214E+03  0.27987594088E+03  0.17300000000E+03 0. -1.
</event>
<event>
 6   0  0.4500850E-05  0.3453994E+03  0.7546771E-02  0.1065111E+00
       21   -1    0    0  501  503  0.00000000000E+00  0.00000000000E+00  0.47853233309E+03  0.47853233309E+03  0.00000000000E+00 0.  1.
       21   -1    0    0  502  504  0.00000000000E+00  0.00000000000E+00 -0.27675916094E+04  0.27675916094E+04  0.00000000000E+00 0. -1.
        6    1    1    2  501    0 -0.32036719430E+03 -0.23161262577E+03 -0.28644223584E+03  0.51793600191E+03  0.17300000000E+03 0.  1.
       -6    1    1    2    0  504  0.87646686691E+02 -0.22609273736E+03  0.34012701295E+02  0.29980949188E+03  0.17300000000E+03 0. -1.
        6    1    1    2  502    0 -0.51121167124E+02  0.23967276496E+03 -0.20074890924E+04  0.20297777869E+04  0.17300000000E+03 0. -1.
       -6    1    1    2    0  503  0.28384167473E+03  0.21803259817E+03 -0.29140649400E+02  0.39860066185E+03  0.17300000000E+03 0. -1.
</event>
<event>
 6   0  0.4500850E-05  0.5639311E+03  0.7546771E-02  0.1006946E+00
       21   -1    0    0  504  503  0.00000000000E+00  0.00000000000E+00  0.38966001102E+03  0.38966001102E+03  0.00000000000E+00 0. -1.
       21   -1    0    0  502  504  0.00000000000E+00  0.00000000000E+00 -0.24803818340E+04  0.24803818340E+04  0.00000000000E+00 0.  1.
        6    1    1    2  501    0 -0.15224521319E+03  0.33082240797E+03 -0.67183476958E+03  0.78352602265E+03  0.17300000000E+03 0.  1.
       -6    1    1    2    0  501 -0.17261808439E+03 -0.46393641548E+03 -0.86640151732E+01  0.52444071717E+03  0.17300000000E+03 0. -1.
        6    1    1    2  502    0  0.34876344341E+03 -0.74964409882E+02 -0.91586622507E+03  0.99799576374E+03  0.17300000000E+03 0.  1.
       -6    1    1    2    0  503 -0.23900145838E+02  0.20807841739E+03 -0.49435681318E+03  0.56407934149E+03  0.17300000000E+03 0. -1.
</event>
<event>
 6   0  0.4500850E-05  0.4307376E+03  0.7546771E-02  0.1053911E+00
       21   -1    0    0  502  503  0.00000000000E+00  0.00000000000E+00  0.54978007854E+03  0.54978007854E+03  0.00000000000E+00 0. -1.
       21   -1    0    0  501  504  0.00000000000E+00  0.00000000000E+00 -0.63609288134E+03  0.63609288134E+03  0.00000000000E+00 0. -1.
        6    1    1    2  501    0 -0.19654123306E+03  0.21894954462E+03  0.70734706932E+02  0.34856815424E+03  0.17300000000E+03 0. -1.
       -6    1    1    2    0  504  0.54720455615E+01 -0.38732378103E+02 -0.59100117284E+02  0.18695444434E+03  0.17300000000E+03 0.  1.
        6    1    1    2  502    0  0.43785888221E+02 -0.10364989891E+03 -0.28104269964E+03  0.34867535699E+03  0.17300000000E+03 0. -1.
       -6    1    1    2    0  503  0.14728329927E+03 -0.76567267612E+02  0.18309530719E+03  0.30167500432E+03  0.17300000000E+03 0. -1.
</event>
<event>
 6   0  0.4500850E-05  0.4134849E+03  0.7546771E-02  0.1062385E+00
       21   -1    0    0  502  503  0.00000000000E+00  0.00000000000E+00  0.64691684315E+03  0.64691684315E+03  0.00000000000E+00 0.  1.
       21   -1    0    0  503  504  0.00000000000E+00  0.00000000000E+00 -0.13675479661E+04  0.13675479661E+04  0.00000000000E+00 0. -1.
        6    1    1    2  501    0 -0.33082116986E+03 -0.11848309704E+03  0.19059083940E+03  0.43558553555E+03  0.17300000000E+03 0.  1.
       -6    1    1    2    0  501  0.37917811298E+03  0.28782278419E+02 -0.10032892752E+04  0.10867947509E+04  0.17300000000E+03 0. -1.
        6    1    1    2  502    0  0.12469535815E+03 -0.12714345142E+02  0.78718269622E+01  0.21377921455E+03  0.17300000000E+03 0.  1.
       -6    1    1    2    0  504 -0.17305230126E+03  0.10241516377E+03  0.84195485887E+02  0.27830530822E+03  0.17300000000E+03 0. -1.
</event>
<event>
 6   0  0.4500850E-05  0.2177223E+03  0.7546771E-02  0.1136898E+00
       21   -1    0    0  502  503  0.00000000000E+00  0.00000000000E+00  0.17890246984E+04  0.17890246984E+04  0.00000000000E+00 0. -1.
       21   -1    0    0  501  504  0.00000000000E+00  0.00000000000E+00 -0.77273627412E+03  0.77273627412E+03  0.00000000000E+00 0.  1.
        6    1    1    2  501    0  0.64204451804E+02  0.27636239387E+02  0.14882805316E+04  0.14999313031E+04  0.17300000000E+03 0. -1.
       -6    1    1    2    0  504 -0.96413120388E+02 -0.12238622570E+02 -0.12220550611E+03  0.23304175460E+03  0.17300000000E+03 0. -1.
        6    1    1    2  502    0  0.71942888346E+02 -0.17176955343E+03 -0.49128069169E+03  0.55314218488E+03  0.17300000000E+03 0.  1.
       -6    1    1    2    0  503 -0.39734219761E+02  0.15637193661E+03  0.14149409045E+03  0.27564572990E+03  0.17300000000E+03 0. -1.
</event>
<event>
 6   0  0.4500850E-05  0.4370769E+03  0.7546771E-02  0.1060427E+00
       21   -1    0    0  504  503  0.00000000000E+00  0.00000000000E+00  0.75565139156E+03  0.75565139156E+03  0.00000000000E+00 0. -1.
       21   -1    0    0  502  504  0.00000000000E+00  0.00000000000E+00 -0.19958568343E+04  0.19958568343E+04  0.00000000000E+00 0.  1.
        6    1    1    2  501    0  0.44698311725E+03 -0.19416916015E+03  0.47783394237E+03  0.70409505491E+03  0.17300000000E+03 0. -1.
       -6    1    1    2    0  503 -0.27121821084E+03 -0.38427164104E+02 -0.83703146625E+02  0.33462095210E+03  0.17300000000E+03 0.  1.
        6    1    1    2  502    0 -0.39339237666E+02  0.70841100554E+02 -0.10557602434E+04  0.10729048088E+04  0.17300000000E+03 0. -1.
       -6    1    1    2    0  501 -0.13642566875E+03  0.16175522370E+03 -0.57857599506E+03  0.63988741006E+03  0.17300000000E+03 0.  1.
</event>
<event>
 6   0  0.4500850E-05  0.3621615E+03  0.7546771E-02  0.1067725E+00
       21   -1    0    0  501  503  0.00000000000E+00  0.00000000000E+00  0.28580487650E+03  0.28580487650E+03  0.00000000000E+00 0. -1.
       21   -1    0    0  502  504  0.00000000000E+00  0.00000000000E+00 -0.16421767943E+04  0.16421767943E+04  0.00000000000E+00 0.  1.
        6    1    1    2  501    0  0.11683969834E+03  0.51490682486E+02 -0.49977276388E+03  0.54406306712E+03  0.17300000000E+03 0.  1.
       -6    1    1    2    0  504 -0.95035485480E+02 -0.81587345363E+02 -0.24726606835E+03  0.32673804030E+03  0.17300000000E+03 0.  1.
        6    1    1    2  502    0 -0.23060589508E+03 -0.18316036388E+02 -0.70794746743E+03  0.76461308691E+03  0.17300000000E+03 0.  1.
       -6    1    1    2    0  503  0.20880168222E+03  0.48412699265E+02  0.98614381886E+02  0.29256747643E+03  0.17300000000E+03 0. -1.
</event>
<event>
 6   0  0.4500850E-05  0.3209369E+03  0.7546771E-02  0.1098352E+00
       21   -1    0    0  501  503  0.00000000000E+00  0.00000000000E+00  0.19351346530E+04  0.19351346530E+04  0.00000000000E+00 0.  1.
       21   -1    0    0  502  504  0.00000000000E+00  0.00000000000E+00 -0.39798675992E+03  0.39798675992E+03  0.00000000000E+00 0.  1.
        6    1    1    2  501    0 -0.17230915549E+03  0.20015618417E+03  0.14815332501E+04  0.15148012128E+04  0.17300000000E+03 0.  1.
       -6    1    1    2    0  503  0.29846843233E+02  0.11728971098E+03  0.11482327337E+03  0.24033537913E+03  0.17300000000E+03 0. -1.
        6    1    1    2  502    0 -0.10917601524E+02  0.63188574412E+01 -0.48029960050E+02  0.17998610792E+03  0.17300000000E+03 0.  1.
       -6    1    1    2    0  504  0.15337991378E+03 -0.32376475260E+03 -0.11178670301E+02  0.39799871312E+03  0.17300000000E+03 0.  1.
</event>
<event>
 6   0  0.4500850E-05  0.3281755E+03  0.7546771E-02  0.1073170E+00
       21   -1    0    0  502  503  0.00000000000E+00  0.00000000000E+00  0.27157340465E+04  0.27157340465E+04  0.00000000000E+00 0.  1.
       21   -1    0    0  501  504  0.00000000000E+00  0.00000000000E+00 -0.80983856215E+03  0.80983856215E+03  0.00000000000E+00 0.  1.
        6    1    1    2  501    0  0.15085784728E+03  0.53706261185E+03  0.19977317786E+04  0.20813590748E+04  0.17300000000E+03 0.  1.
       -6    1    1    2    0  503 -0.90202519491E+02 -0.43882792012E+02  0.49646060335E+03  0.53522362115E+03  0.17300000000E+03 0.  1.
        6    1    1    2  502    0 -0.12613799178E+03 -0.40051394196E+03 -0.26693125908E+03  0.52678601704E+03  0.17300000000E+03 0.  1.
       -6    1    1    2    0  504  0.65482663991E+02 -0.92665877876E+02 -0.32136563852E+03  0.38220389562E+03  0.17300000000E+03 0. -1.
</event>
<event>
 6   0  0.4500850E-05  0.2000041E+03  0.7546771E-02  0.1151614E+00
       21   -1    0    0  502  503  0.00000000000E+00  0.00000000000E+00  0.53291652182E+03  0.53291652182E+03  0.00000000000E+00 0. -1.
       21   -1    0    0  501  504  0.00000000000E+00  0.00000000000E+00 -0.75363238445E+03  0.75363238445E+03  0.00000000000E+00 0.  1.
        6    1    1    2  501    0 -0.12797519019E+03 -0.49445796755E+02  0.32144560520E+03  0.38997283652E+03  0.17300000000E+03 0. -1.
       -6    1    1    2    0  504  0.20724831637E+02 -0.48418402530E+02 -0.26607407663E+03  0.32171147727E+03  0.17300000000E+03 0. -1.
        6    1    1    2  502    0  0.10576115985E+03  0.10206598257E+03 -0.32371086346E+03  0.39537401388E+03  0.17300000000E+03 0.  1.
       -6    1    1    2    0  503  0.14891987011E+01 -0.42017832872E+01  0.47623472268E+02  0.17949057860E+03  0.17300000000E+03 0. -1.
</event>
<event>
 6   0  0.4500850E-05  0.2722310E+03  0.7546771E-02  0.1114060E+00
       21   -1    0    0  504  503  0.00000000000E+00  0.00000000000E+00  0.18321250755E+04  0.18321250755E+04  0.00000000000E+00 0. -1.
       21   -1    0    0  502  504  0.00000000000E+00  0.00000000000E+00 -0.27634094905E+03  0.27634094905E+03  0.00000000000E+00 0. -1.
        6    1    1    2  501    0  0.80664474166E+02  0.80518764748E+02  0.20224816666E+03  0.28952262396E+03  0.17300000000E+03 0.  1.
       -6    1    1    2    0  501 -0.29763121290E+02  0.86242426529E+02  0.56963446747E+01  0.19566565326E+03  0.17300000000E+03 0. -1.
        6    1    1    2  502    0  0.50627880056E+02  0.59914876099E+02 -0.47240492445E+02  0.19573870017E+03  0.17300000000E+03 0.  1.
       -6    1    1    2    0  503 -0.10152923293E+03 -0.22667606738E+03  0.13950801076E+04  0.14275390472E+04  0.17300000000E+03 0. -1.
</event>
<event>
 6   0  0.4500850E-05  0.2456698E+03  0.7546771E-02  0.1123766E+00
       21   -1    0    0  501  503  0.00000000000E+00  0.00000000000E+00  0.36539602825E+03  0.36539602825E+03  0.00000000000E+00 0. -1.
       21   -1    0    0  502  504  0.00000000000E+00  0.00000000000E+00 -0.34586206022E+04  0.34586206022E+04  0.00000000000E+00 0.  1.
        6    1    1    2  501    0  0.80713911568E+02  0.47548138591E+02  0.26060846215E+03  0.32652922005E+03  0.17300000000E+03 0. -1.
       -6    1    1    2    0  504  0.39055245895E+02 -0.18060362813E+03 -0.14104103740E+04  0.14329443136E+04  0.17300000000E+03 0.  1.
        6    1    1    2  502    0 -0.21734494965E+03 -0.55411527269E+02 -0.36231538545E+03  0.45990292783E+03  0.17300000000E+03 0. -1.
       -6    1    1    2    0  503  0.97575792187E+02  0.18846701681E+03 -0.15811072766E+04  0.16046401690E+04  0.17300000000E+03 0.  1.
</event>
<event>
 6   0  0.4500850E-05  0.2450365E+03  0.7546771E-02  0.1120178E+00
       21   -1    0    0  501  503  0.00000000000E+00  0.00000000000E+00  0.56838958452E+03  0.56838958452E+03  0.00000000000E+00 0.  1.
       21   -1    0    0  502  504  0.00000000000E+00  0.00000000000E+00 -0.55950482073E+03  0.55950482073E+03  0.00000000000E+00 0.  1.
        6    1    1    2  501    0  0.52583012946E+02 -0.27366673851E+03 -0.15299593618E+02  0.32836189575E+03  0.17300000000E+03 0.  1.
       -6    1    1    2    0  503  0.72020700791E-01  0.26677605091E+01  0.50106561973E+02  0.18012992446E+03  0.17300000000E+03 0. -1.
        6    1    1    2  502    0  0.24298468958E+02  0.25764812678E+03  0.16318042186E+03  0.35146809657E+03  0.17300000000E+03 0.  1.
       -6    1    1    2    0  504 -0.76953502605E+02  0.13350851213E+02 -0.18910262642E+03  0.26793448847E+03  0.17300000000E+03 0.  1.
</event>
<event>
 6   0  0.4500850E-05  0.1870554E+03  0.7546771E-02  0.1161732E+00
       21   -1    0    0  502  503  0.00000000000E+00  0.00000000000E+00  0.39644051652E+03  0.39644051652E+03  0.00000000000E+00 0.  1.
       21   -1    0    0  501  504  0.00000000000E+00  0.00000000000E+00 -0.67401322515E+03  0.67401322515E+03  0.00000000000E+00 0.  1.
        6    1    1    2  501    0  0.96860896737E+02 -0.65946333073E+02 -0.17870374715E+03  0.27494541533E+03  0.17300000000E+03 0.  1.
       -6    1    1    2    0  503 -0.61636442985E+02 -0.42170318308E+02 -0.73752714311E+02  0.20235080854E+03  0.17300000000E+03 0.  1.
        6    1    1    2  502    0 -0.19500944284E+02  0.51774244683E+02 -0.24648794065E+03  0.30617995383E+03  0.17300000000E+03 0.  1.
       -6    1    1    2    0  504 -0.15723509468E+02  0.56342406698E+02  0.22137169349E+03  0.28697756397E+03  0.17300000000E+03 0.  1.
</event>
<event>
 6   0  0.4500850E-05  0.3448538E+03  0.7546771E-02  0.1085472E+00
       21   -1    0    0  502  503  0.00000000000E+00  0.00000000000E+00  0.42698481852E+03  0.42698481852E+03  0.00000000000E+00 0. -1.
       21   -1    0    0  503  504  0.00000000000E+00  0.00000000000E+00 -0.27170768720E+04  0.27170768720E+04  0.00000000000E+00 0. -1.
        6    1    1    2  501    0 -0.94223368501E+02  0.29075831744E+03 -0.48893073235E+03  0.60199726193E+03  0.17300000000E+03 0. -1.
       -6    1    1    2    0  501  0.36382388451E+03  0.14958571617E+02 -0.17545676646E+03  0.43966538947E+03  0.17300000000E+03 0.  1.
        6    1    1    2  502    0 -0.89145653623E+02 -0.41125102014E+02  0.17520297247E+03  0.26507226022E+03  0.17300000000E+03 0. -1.
       -6    1    1    2    0  504 -0.18045486239E+03 -0.26459178704E+03 -0.18009075272E+04  0.18373267789E+04  0.17300000000E+03 0.  1.
</event>
<event>
 6   0  0.4500850E-05  0.2184117E+03  0.7546771E-02  0.1142171E+00
       21   -1    0    0  504  503  0.00000000000E+00  0.00000000000E+00  0.23517472918E+03  0.23517472918E+03  0.00000000000E+00 0.  1.
       21   -1    0    0  502  504  0.00000000000E+00  0.00000000000E+00 -0.12143809702E+04  0.12143809702E+04  0.00000000000E+00 0.  1.
        6    1    1    2  501    0 -0.82261223247E+02  0.18254771211E+02 -0.31650760166E+02  0.19501516900E+03  0.17300000000E+03 0.  1.
       -6    1    1    2    0  503 -0.51845470237E+02  0.10632620820E+03 -0.38637761100E+02  0.21310816952E+03  0.17300000000E+03 0.  1.
        6    1    1    2  502    0  0.12482648511E+03 -0.62707889667E+02 -0.79394392962E+03  0.82449371993E+03  0.17300000000E+03 0. -1.
       -6    1    1    2    0  501  0.92802083730E+01 -0.61873089741E+02 -0.11497379010E+03  0.21693864089E+03  0.17300000000E+03 0.  1.
</event>
<event>
 6   0  0.4500850E-05  0.3638051E+03  0.7546771E-02  0.1067047E+00
       21   -1    0    0  502  503  0.00000000000E+00  0.00000000000E+00  0.67240908596E+03  0.67240908596E+03  0.00000000000E+00 0.  1.
       21   -1    0    0  501  504  0.00000000000E+00  0.00000000000E+00 -0.10548914065E+04  0.10548914065E+04  0.00000000000E+00 0. -1.
        6    1    1    2  501    0 -0.80869704277E+02  0.14762272238E+03  0.97672598959E+02  0.26038685416E+03  0.17300000000E+03 0.  1.
       -6    1    1    2    0  504  0.18202107008E+02 -0.62203209596E+03 -0.37912414748E+03  0.74894550156E+03  0.17300000000E+03 0.  1.
        6    1    1    2  502    0  0.53586560727E+02  0.25730222805E+02  0.85727721413E+02  0.20201932104E+03  0.17300000000E+03 0.  1.
       -6    1    1    2    0  503  0.90810365414E+01  0.44867915078E+03 -0.18675849347E+03  0.51594881573E+03  0.17300000000E+03 0. -1.
</event>
<event>
 6   0  0.4500850E-05  0.6596104E+03  0.7546771E-02  0.1018760E+00
       21   -1    0    0  501  503  0.00000000000E+00  0.00000000000E+00  0.31455808850E+04  0.31455808850E+04  0.00000000000E+00 0. -1.
       21   -1    0    0  502  504  0.00000000000E+00  0.00000000000E+00 -0.25828371220E+03  0.25828371220E+03  0.00000000000E+00 0. -1.
        6    1    1    2  501    0 -0.27174845728E+02 -0.38566465670E+03  0.16452509536E+03  0.45439322912E+03  0.17300000000E+03 0. -1.
       -6    1    1    2    0  503 -0.69970633243E+02 -0.13273479192E+02  0.15591723142E+04  0.15703564500E+04  0.17300000000E+03 0. -1.
        6    1    1    2  502    0  0.79741892796E+02  0.49941156719E+03  0.91331355187E+03  0.10582255558E+04  0.17300000000E+03 0. -1.
       -6    1    1    2    0  504  0.17403586175E+02 -0.10047343129E+03  0.25028621134E+03  0.32088936223E+03  0.17300000000E+03 0. -1.
</event>
<event>
 6   0  0.4500850E-05  0.2341416E+03  0.7546771E-02  0.1127511E+00
       21   -1    0    0  502  503  0.00000000000E+00  0.00000000000E+00  0.90424209018E+03  0.90424209018E+03  0.00000000000E+00 0.  1.
       21   -1    0    0  501  504  0.00000000000E+00  0.00000000000E+00 -0.13129572427E+04  0.13129572427E+04  0.00000000000E+00 0.  1.
        6    1    1    2  501    0 -0.74800073380E+02 -0.36147902838E+02 -0.33757803221E+03  0.38831642985E+03  0.17300000000E+03 0.  1.
       -6    1    1    2    0  504 -0.12727820707E+01  0.24784507149E+02  0.11397984915E+02  0.17514224456E+03  0.17300000000E+03 0. -1.
        6    1    1    2  502    0 -0.17454325697E+03  0.11483444908E+03  0.73058741514E+03  0.77931974850E+03  0.17300000000E+03 0.  1.
       -6    1    1    2    0  503  0.25061611242E+03 -0.10347105339E+03 -0.81312252033E+03  0.87442090995E+03  0.17300000000E+03 0.  1.
</event>
<event>
 6   0  0.4500850E-05  0.6600288E+03  0.7546771E-02  0.9794172E-01
       21   -1    0    0  501  503  0.00000000000E+00  0.00000000000E+00  0.17304864784E+04  0.17304864784E+04  0.00000000000E+00 0.  1.
       21   -1    0    0  502  504  0.00000000000E+00  0.00000000000E+00 -0.28637225435E+03  0.28637225435E+03  0.00000000000E+00 0.  1.
        6    1    1    2  501    0  0.39204757574E+03 -0.32687427715E+02  0.92859312099E+03  0.10232223385E+04  0.17300000000E+03 0.  1.
       -6    1    1    2    0  503  0.90947372361E+02 -0.10765931334E+02  0.17438913406E+03  0.26216006541E+03  0.17300000000E+03 0.  1.
        6    1    1    2  502    0 -0.24677214133E+03  0.52817359914E+02  0.35329375690E+02  0.30799890914E+03  0.17300000000E+03 0.  1.
       -6    1    1    2    0  504 -0.23622280677E+03 -0.93640008647E+01  0.30580259330E+03  0.42347741973E+03  0.17300000000E+03 0.  1.
</event>
<event>
 6   0  0.4500850E-05  0.2545760E+03  0.7546771E-02  0.1111961E+00
       21   -1    0    0  504  503  0.00000000000E+00  0.00000000000E+00  0.25042078560E+03  0.25042078560E+03  0.00000000000E+00 0.  1.
       21   -1    0    0  501  504  0.00000000000E+00  0.00000000000E+00 -0.20762599727E+04  0.20762599727E+04  0.00000000000E+00 0. -1.
        6    1    1    2  501    0 -0.81412658135E+02 -0.67406748469E+02 -0.76804215692E+03  0.79434844083E+03  0.17300000000E+03 0. -1.
       -6    1    1    2    0  502  0.23793802220E+03 -0.10791545184E+03 -0.85367417389E+03  0.90936727581E+03  0.17300000000E+03 0. -1.
        6    1    1    2  502    0 -0.16951884640E+03  0.28617584222E+03 -0.82640566403E+02  0.38391628667E+03  0.17300000000E+03 0.  1.
       -6    1    1    2    0  503  0.12993482334E+02 -0.11085364191E+03 -0.12148228989E+03  0.23904875500E+03  0.17300000000E+03 0. -1.
</event>
<event>
 6   0  0.4500850E-05  0.2083827E+03  0.7546771E-02  0.1143855E+00
       21   -1    0    0  504  503  0.00000000000E+00  0.00000000000E+00  0.56685712739E+03  0.56685712739E+03  0.00000000000E+00 0. -1.
       21   -1    0    0  501  504  0.00000000000E+00  0.00000000000E+00 -0.89339724316E+03  0.89339724316E+03  0.00000000000E+00 0. -1.
        6    1    1    2  501    0 -0.34899963355E+02 -0.60327555446E+02 -0.36755470996E+03  0.41216851676E+03  0.17300000000E+03 0. -1.
       -6    1    1    2    0  502  0.18565547117E+03  0.11939254685E+03 -0.30609309192E+03  0.41514396917E+03  0.17300000000E+03 0. -1.
        6    1    1    2  502    0 -0.72530179810E+02 -0.47177272416E+02 -0.43688438977E+02  0.19830280310E+03  0.17300000000E+03 0.  1.
       -6    1    1    2    0  503 -0.78225328001E+02 -0.11887718985E+02  0.39079612510E+03  0.43463908153E+03  0.17300000000E+03 0. -1.
</event>
<event>
 6   0  0.4500850E-05  0.2788022E+03  0.7546771E-02  0.1108142E+00
       21   -1    0    0  502  503  0.00000000000E+00  0.00000000000E+00  0.10876384447E+04  0.10876384447E+04  0.00000000000E+00 0. -1.
       21   -1    0    0  503  504  0.00000000000E+00  0.00000000000E+00 -0.63504911633E+03  0.63504911633E+03  0.00000000000E+00 0.  1.
        6    1    1    2  501    0 -0.20561579313E+03 -0.34435893807E+02  0.22730325887E+03  0.35363746501E+03  0.17300000000E+03 0.  1.
       -6    1    1    2    0  504 -0.75068238594E+02 -0.28322820505E+03 -0.29290764542E+03  0.44897365772E+03  0.17300000000E+03 0.  1.
        6    1    1    2  502    0  0.25947482424E+03  0.22525999280E+03  0.59486795018E+03  0.70842510326E+03  0.17300000000E+03 0. -1.
       -6    1    1    2    0  501  0.21209207483E+02  0.92404106049E+02 -0.76674235215E+02  0.21165133508E+03  0.17300000000E+03 0.  1.
</event>
<event>
 6   0  0.4500850E-05  0.5200427E+03  0.7546771E-02  0.1036056E+00
       21   -1    0    0  504  503  0.00000000000E+00  0.00000000000E+00  0.11354749504E+04  0.11354749504E+04  0.00000000000E+00 0.  1.
       21   -1    0    0  502  504  0.00000000000E+00  0.00000000000E+00 -0.74322145612E+03  0.74322145612E+03  0.00000000000E+00 0. -1.
        6    1    1    2  501    0 -0.11288797629E+03 -0.96239037491E+02  0.24927908365E+03  0.33774947679E+03  0.17300000000E+03 0.  1.
       -6    1    1    2    0  501  0.61218593927E+03 -0.12249128258E+03  0.64048234654E+02  0.65100454293E+03  0.17300000000E+03 0. -1.
        6    1    1    2  502    0 -0.43157177133E+03  0.44690716014E+02 -0.20368918930E+03  0.50957800162E+03  0.17300000000E+03 0. -1.
       -6    1    1    2    0  503 -0.67726191656E+02  0.17403960406E+03  0.28261536526E+03  0.38036438516E+03  0.17300000000E+03 0.  1.
</event>
<event>
 6   0  0.4500850E-05  0.2710438E+03  0.7546771E-02  0.1115462E+00
       21   -1    0    0  501  503  0.00000000000E+00  0.00000000000E+00  0.14518859930E+04  0.14518859930E+04  0.00000000000E+00 0. -1.
       21   -1    0    0  502  504  0.00000000000E+00  0.00000000000E+00 -0.32757519986E+03  0.32757519986E+03  0.00000000000E+00 0. -1.
        6    1    1    2  501    0 -0.16011335117E+03 -0.19572589282E+03  0.14753219512E+03  0.34005831697E+03  0.17300000000E+03 0. -1.
       -6    1    1    2    0  504  0.18446560194E+02 -0.12278226032E+02  0.24557408243E+03  0.30120866585E+03  0.17300000000E+03 0.  1.
        6    1    1    2  502    0  0.23493541921E+03  0.31113998610E+02 -0.63885477758E+02  0.30028833873E+03  0.17300000000E+03 0. -1.
       -6    1    1    2    0  503 -0.93268628240E+02  0.17689012024E+03  0.79508999337E+03  0.83790587133E+03  0.17300000000E+03 0.  1.
</event>
<event>
 6   0  0.4500850E-05  0.4773252E+03  0.7546771E-02  0.1039775E+00
       21   -1    0    0  502  503  0.00000000000E+00  0.00000000000E+00  0.17150231334E+04  0.17150231334E+04  0.00000000000E+00 0.  1.
       21   -1    0    0  503  504  0.00000000000E+00  0.00000000000E+00 -0.45636642608E+03  0.45636642608E+03  0.00000000000E+00 0. -1.
        6    1    1    2  501    0 -0.11030156105E+03 -0.41385334615E+03  0.48025176884E+03  0.66634209529E+03  0.17300000000E+03 0. -1.
       -6    1    1    2    0  501 -0.89684378939E+02  0.22144286245E+03  0.48843732115E+03  0.57059639488E+03  0.17300000000E+03 0.  1.
        6    1    1    2  502    0 -0.16644027658E+03 -0.11073814605E+03  0.33458473647E+03  0.42642847998E+03  0.17300000000E+03 0. -1.
       -6    1    1    2    0  504  0.36642621657E+03  0.30314862975E+03 -0.44617119166E+02  0.50802258930E+03  0.17300000000E+03 0. -1.
</event>
<event>
 6   0  0.4500850E-05  0.2536803E+03  0.7546771E-02  0.1111925E+00
       21   -1    0    0  501  503  0.00000000000E+00  0.00000000000E+00  0.38419767360E+03  0.38419767360E+03  0.00000000000E+00 0. -1.
       21   -1    0    0  502  504  0.00000000000E+00  0.00000000000E+00 -0.18389498377E+04  0.18389498377E+04  0.00000000000E+00 0. -1.
        6    1    1    2  501    0 -0.49356130333E+02  0.61325974384E+02  0.16915272140E+03  0.25443770533E+03  0.17300000000E+03 0.  1.
       -6    1    1    2    0  503  0.18706365670E+03  0.12180142736E+03 -0.67287460385E+03  0.72973805702E+03  0.17300000000E+03 0. -1.
        6    1    1    2  502    0  0.90771571348E+02  0.12103746840E+02 -0.85785786211E+03  0.87990629639E+03  0.17300000000E+03 0. -1.
       -6    1    1    2    0  504 -0.22847909771E+03 -0.19523114859E+03 -0.93172419567E+02  0.35906545258E+03  0.17300000000E+03 0. -1.
</event>
<event>
 6   0  0.4500850E-05  0.2796887E+03  0.7546771E-02  0.1104829E+00
       21   -1    0    0  504  503  0.00000000000E+00  0.00000000000E+00  0.24064363626E+04  0.24064363626E+04  0.00000000000E+00 0.  1.
       21   -1    0    0  502  504  0.00000000000E+00  0.00000000000E+00 -0.70923212503E+03  0.70923212503E+03  0.00000000000E+00 0.  1.
        6    1    1    2  501    0 -0.27576459138E+03 -0.10425169734E+03  0.75240486774E+03  0.82641188959E+03  0.17300000000E+03 0.  1.
       -6    1    1    2    0  501  0.16263848091E+03  0.92192597075E+02 -0.83121978908E+02  0.26793471930E+03  0.17300000000E+03 0. -1.
        6    1    1    2  502    0  0.13776001091E+03  0.56211808797E+02 -0.46478386571E+03  0.51777469027E+03  0.17300000000E+03 0.  1.
       -6    1    1    2    0  503 -0.24633900434E+02 -0.44152708531E+02  0.14927052144E+04  0.15035471884E+04  0.17300000000E+03 0.  1.
</event>
<event>
 6   0  0.4500850E-05  0.2402295E+03  0.7546771E-02  0.1123354E+00
       21   -1    0    0  504  503  0.00000000000E+00  0.00000000000E+00  0.13882002483E+04  0.13882002483E+04  0.00000000000E+00 0. -1.
       21   -1    0    0  501  504  0.00000000000E+00  0.00000000000E+00 -0.53959073807E+03  0.53959073807E+03  0.00000000000E+00 0. -1.
        6    1    1    2  501    0 -0.71871733910E+02  0.15076154135E+02 -0.19478925052E+03  0.27067450688E+03  0.17300000000E+03 0.  1.
       -6    1    1    2    0  503  0.10488348688E+03 -0.46468756342E+02  0.97754858612E+03  0.99934485007E+03  0.17300000000E+03 0. -1.
        6    1    1    2  502    0 -0.21848096414E+03 -0.11572877676E+03  0.17032213338E+03  0.34650499359E+03  0.17300000000E+03 0.  1.
       -6    1    1    2    0  502  0.18546921116E+03  0.14712137896E+03 -0.10447195872E+03  0.31126663586E+03  0.17300000000E+03 0. -1.
</event>
<event>
 6   0  0.4500850E-05  0.2279996E+03  0.7546771E-02  0.1133118E+00
       21   -1    0    0  502  503  0.00000000000E+00  0.00000000000E+00  0.35399566980E+03  0.35399566980E+03  0.00000000000E+00 0.  1.
       21   -1    0    0  501  504  0.00000000000E+00  0.00000000000E+00 -0.65219489027E+03  0.65219489027E+03  0.00000000000E+00 0. -1.
        6    1    1    2  501    0  0.11074792019E+03 -0.49744037272E+02  0.46060403435E+02  0.21631026752E+03  0.17300000000E+03 0.  1.
       -6    1    1    2    0  503  0.27509041117E+02  0.17102995204E+03 -0.11048182659E+03  0.26859491031E+03  0.17300000000E+03 0. -1.
        6    1    1    2  502    0 -0.19988319978E+03 -0.58971016494E+02 -0.15412726883E+03  0.31163294007E+03  0.17300000000E+03 0. -1.
       -6    1    1    2    0  504  0.61626238472E+02 -0.62314898276E+02 -0.79650528489E+02  0.20965244216E+03  0.17300000000E+03 0.  1.
</event>
<event>
 6   0  0.4500850E-05  0.3413565E+03  0.7546771E-02  0.1075922E+00
       21   -1    0    0  504  503  0.00000000000E+00  0.00000000000E+00  0.13771514767E+04  0.13771514767E+04  0.00000000000E+00 0.  1.
       21   -1    0    0  502  504  0.00000000000E+00  0.00000000000E+00 -0.13125149327E+04  0.13125149327E+04  0.00000000000E+00 0.  1.
        6    1    1    2  501    0 -0.18160775900E+03 -0.44584398625E+03  0.51792808140E+03  0.72796753754E+03  0.17300000000E+03 0.  1.
       -6    1    1    2    0  503  0.21776264550E+03  0.56240519664E+02  0.65230709923E+03  0.71134880159E+03  0.17300000000E+03 0. -1.
        6    1    1    2  502    0  0.22168825503E+02  0.13288577997E+03 -0.71881880122E+03  0.75151816766E+03  0.17300000000E+03 0.  1.
       -6    1    1    2    0  501 -0.58323712003E+02  0.25671768662E+03 -0.38677983541E+03  0.49883190263E+03  0.17300000000E+03 0. -1.
</event>
<event>
 6   0  0.4500850E-05  0.2647079E+03  0.7546771E-02  0.1113586E+00
       21   -1    0    0  502  503  0.00000000000E+00  0.00000000000E+00  0.10921026332E+04  0.10921026332E+04  0.00000000000E+00 0.  1.
       21   -1    0    0  501  504  0.00000000000E+00  0.00000000000E+00 -0.88912197438E+03  0.88912197438E+03  0.00000000000E+00 0.  1.
        6    1    1    2  501    0  0.96397164545E+02 -0.15301283031E+03 -0.97900069301E+02  0.26873548918E+03  0.17300000000E+03 0. -1.
       -6    1    1    2    0  503  0.14318650320E+03  0.20898407583E+03 -0.50334070377E+03  0.58945532717E+03  0.17300000000E+03 0.  1.
        6    1    1    2  502    0 -0.10117006192E+03 -0.59677078735E+02  0.86769381866E+03  0.89253476016E+03  0.17300000000E+03 0.  1.
       -6    1    1    2    0  504 -0.13841360582E+03  0.37058332229E+01 -0.63472386715E+02  0.23049903113E+03  0.17300000000E+03 0. -1.
</event>
<event>
 6   0  0.4500850E-05  0.2243320E+03  0.7546771E-02  0.1138096E+00
       21   -1    0    0  502  503  0.00000000000E+00  0.00000000000E+00  0.84910220194E+03  0.84910220194E+03  0.00000000000E+00 0.  1.
       21   -1    0    0  501  504  0.00000000000E+00  0.00000000000E+00 -0.70685297684E+03  0.70685297684E+03  0.00000000000E+00 0.  1.
        6    1    1    2  501    0 -0.63096449175E+02  0.34287133408E+02 -0.75471725033E+02  0.20194491995E+03  0.17300000000E+03 0. -1.
       -6    1    1    2    0  504  0.79453352601E+02 -0.69039311884E+02 -0.43664239485E+02  0.20715894293E+03  0.17300000000E+03 0. -1.
        6    1    1    2  502    0 -0.15340680971E+00 -0.10868279652E+03 -0.39944777439E+03  0.44866412633E+03  0.17300000000E+03 0.  1.
       -6    1    1    2    0  503 -0.16203496616E+02  0.14343497500E+03  0.66083296401E+03  0.69818718957E+03  0.17300000000E+03 0.  1.
</event>
<event>
 6   0  0.4500850E-05  0.4825916E+03  0.7546771E-02  0.1028256E+00
       21   -1    0    0  502  503  0.00000000000E+00  0.00000000000E+00  0.29832210007E+04  0.29832210007E+04  0.00000000000E+00 0.  1.
       21   -1    0    0  501  504  0.00000000000E+00  0.00000000000E+00 -0.18717841005E+03  0.18717841005E+03  0.00000000000E+00 0. -1.
        6    1    1    2  501    0 -0.24907484314E+03 -0.33915191812E+02  0.42353159526E+03  0.52201200169E+03  0.17300000000E+03 0. -1.
       -6    1    1    2    0  503 -0.30928725547E+03 -0.10626145594E+03  0.13439862415E+04  0.13939792397E+04  0.17300000000E+03 0.  1.
        6    1    1    2  502    0  0.13704561692E+03  0.14736552952E+02  0.18832689203E+03  0.29050763393E+03  0.17300000000E+03 0. -1.
       -6    1    1    2    0  504  0.42131648169E+03  0.12544009480E+03  0.84019786186E+03  0.96390053543E+03  0.17300000000E+03 0.  1.
</event>
<event>
 6   0  0.4500850E-05  0.3302358E+03  0.7546771E-02  0.1073405E+00
       21   -1    0    0  502  503  0.00000000000E+00  0.00000000000E+00  0.11966685625E+04  0.11966685625E+04  0.00000000000E+00 0.  1.
       21   -1    0    0  501  504  0.00000000000E+00  0.00000000000E+00 -0.12628032659E+04  0.12628032659E+04  0.00000000000E+00 0.  1.
        6    1    1    2  501    0 -0.53486973414E+02  0.98299438495E+02 -0.42807081190E+03  0.47507605279E+03  0.17300000000E+03 0.  1.
       -6    1    1    2    0  503 -0.27067380907E+03 -0.47301603184E+03 -0.57451276666E+03  0.81055684338E+03  0.17300000000E+03 0.  1.
        6    1    1    2  502    0 -0.43590283975E+02  0.77230393136E+02  0.35367573061E+03  0.40358415344E+03  0.17300000000E+03 0. -1.
       -6    1    1    2    0  504  0.36775106646E+03  0.29748620021E+03  0.58277314461E+03  0.77025477881E+03  0.17300000000E+03 0.  1.
</event>
<event>
 6   0  0.4500850E-05  0.6386103E+03  0.7546771E-02  0.9828389E-01
       -1   -1    0    0    0  501  0.00000000000E+00  0.00000000000E+00  0.45348641014E+03  0.45348641014E+03  0.00000000000E+00 0. -1.
        1   -1    0    0  503    0  0.00000000000E+00  0.00000000000E+00 -0.11636830168E+04  0.11636830168E+04  0.00000000000E+00 0.  1.
        6    1    1    2  502    0  0.15406743485E+02 -0.18329780982E+03  0.16290844650E+02  0.25304119516E+03  0.17300000000E+03 0. -1.
       -6    1    1    2    0  502 -0.56946599756E+00  0.46021820871E+03 -0.60723564951E+03  0.78132276170E+03  0.17300000000E+03 0.  1.
        6    1    1    2  503    0 -0.98587975577E+02 -0.26793873541E+03 -0.18225503869E+03  0.38033755270E+03  0.17300000000E+03 0.  1.
       -6    1    1    2    0  501  0.83750698090E+02 -0.89816634818E+01  0.63003236882E+02  0.20246791738E+03  0.17300000000E+03 0.  1.
</event>
<event>
 6   0  0.4500850E-05  0.2215270E+03  0.7546771E-02  0.1142118E+00
       21   -1    0    0  501  503  0.00000000000E+00  0.00000000000E+00  0.15069515165E+04  0.15069515165E+04  0.00000000000E+00 0.  1.
       21   -1    0    0  502  504  0.00000000000E+00  0.00000000000E+00 -0.53083081775E+03  0.53083081775E+03  0.00000000000E+00 0.  1.
        6    1    1    2  501    0  0.10614845454E+03  0.87392540547E+02  0.12830215185E+04  0.13019132719E+04  0.17300000000E+03 0.  1.
       -6    1    1    2    0  504 -0.12694609509E+03 -0.78376686200E+02  0.21718754239E+02  0.22947531520E+03  0.17300000000E+03 0.  1.
        6    1    1    2  502    0  0.33588770860E+02  0.23741128566E+02 -0.65426182433E+02  0.18947673224E+03  0.17300000000E+03 0. -1.
       -6    1    1    2    0  503 -0.12791130312E+02 -0.32756982913E+02 -0.26319339160E+03  0.31691701489E+03  0.17300000000E+03 0.  1.
</event>
<event>
 6   0  0.4500850E-05  0.2935697E+03  0.7546771E-02  0.1094647E+00
       21   -1    0    0  502  503  0.00000000000E+00  0.00000000000E+00  0.30902022283E+03  0.30902022283E+03  0.00000000000E+00 0.  1.
       21   -1    0    0  501  504  0.00000000000E+00  0.00000000000E+00 -0.18806906495E+04  0.18806906495E+04  0.00000000000E+00 0. -1.
        6    1    1    2  501    0 -0.16918548598E+03  0.21719518522E+03  0.31581488155E+02  0.32668619123E+03  0.17300000000E+03 0.  1.
       -6    1    1    2    0  504  0.72763170254E+02  0.51229847346E+02 -0.21071107907E+03  0.28678761314E+03  0.17300000000E+03 0.  1.
        6    1    1    2  502    0  0.28663411370E+03 -0.21746566723E+03 -0.46744298874E+03  0.61472138346E+03  0.17300000000E+03 0.  1.
       -6    1    1    2    0  503 -0.19021179798E+03 -0.50959365337E+02 -0.92509784703E+03  0.96151568452E+03  0.17300000000E+03 0. -1.
</event>
<event>
 6   0  0.4500850E-05  0.5202612E+03  0.7546771E-02  0.1040176E+00
       21   -1    0    0  504  503  0.00000000000E+00  0.00000000000E+00  0.16364238962E+04  0.16364238962E+04  0.00000000000E+00 0. -1.
       21   -1    0    0  501  504  0.00000000000E+00  0.00000000000E+00 -0.26124675342E+03  0.26124675342E+03  0.00000000000E+00 0. -1.
        6    1    1    2  501    0 -0.31928852851E+02  0.17943803578E+02  0.65632456534E+02  0.18862144916E+03  0.17300000000E+03 0. -1.
       -6    1    1    2    0  503 -0.19151665782E+02 -0.42611063181E+03  0.84005497724E+03  0.95789269839E+03  0.17300000000E+03 0. -1.
        6    1    1    2  502    0  0.39882935246E+02  0.12944060199E+03  0.32551585754E+03  0.39272775746E+03  0.17300000000E+03 0. -1.
       -6    1    1    2    0  502  0.11197583387E+02  0.27872622625E+03  0.14397385147E+03  0.35842874463E+03  0.17300000000E+03 0. -1.
</event>
<event>
 6   0  0.4500850E-05  0.2629530E+03  0.7546771E-02  0.1110801E+00
       21   -1    0    0  504  503  0.00000000000E+00  0.00000000000E+00  0.82534806552E+03  0.82534806552E+03  0.00000000000E+00 0. -1.
       21   -1    0    0  501  504  0.00000000000E+00  0.00000000000E+00 -0.42229521189E+03  0.42229521189E+03  0.00000000000E+00 0.  1.
        6    1    1    2  501    0  0.48227633832E+02  0.34448866644E+02 -0.11313794328E+03  0.21503912037E+03  0.17300000000E+03 0.  1.
       -6    1    1    2    0  503 -0.25943173170E+02 -0.12380522070E+03  0.21066602734E+03  0.30051614929E+03  0.17300000000E+03 0.  1.
        6    1    1    2  502    0 -0.25839117614E+03 -0.83828930357E+02  0.18407630213E+03  0.37095333194E+03  0.17300000000E+03 0.  1.
       -6    1    1    2    0  502  0.23610671548E+03  0.17318528442E+03  0.12144846743E+03  0.36113467581E+03  0.17300000000E+03 0. -1.
</event>
<event>
 6   0  0.4500850E-05  0.2845212E+03  0.7546771E-02  0.1100154E+00
       21   -1    0    0  502  503  0.00000000000E+00  0.00000000000E+00  0.25057958895E+04  0.25057958895E+04  0.00000000000E+00 0.  1.
       21   -1    0    0  503  504  0.00000000000E+00  0.00000000000E+00 -0.40973905045E+03  0.40973905045E+03  0.00000000000E+00 0.  1.
        6    1    1    2  501    0 -0.11459668457E+03 -0.32295730215E+03  0.16209006516E+03  0.41669654228E+03  0.17300000000E+03 0.  1.
       -6    1    1    2    0  504  0.32986172968E+02  0.24305121045E+02 -0.19360169745E+03  0.26284870890E+03  0.17300000000E+03 0.  1.
        6    1    1    2  502    0  0.35260388181E+02 -0.11995007975E+03  0.94482041887E+03  0.96863096198E+03  0.17300000000E+03 0.  1.
       -6    1    1    2    0  501  0.46350123419E+02  0.41860226086E+03  0.11827480524E+04  0.12673587268E+04  0.17300000000E+03 0.  1.
</event>
<event>
 6   0  0.4500850E-05  0.1912699E+03  0.7546771E-02  0.1158124E+00
       21   -1    0    0  501  503  0.00000000000E+00  0.00000000000E+00  0.21129393201E+03  0.21129393201E+03  0.00000000000E+00 0. -1.
       21   -1    0    0  502  504  0.00000000000E+00  0.00000000000E+00 -0.94330971087E+03  0.94330971087E+03  0.00000000000E+00 0. -1.
        6    1    1    2  501    0  0.63272675727E+02  0.23247838277E+02 -0.20408205329E+03  0.27590284151E+03  0.17300000000E+03 0.  1.
       -6    1    1    2    0  504 -0.17755555809E+02  0.55843542583E+02 -0.34342493152E+03  0.38897743456E+03  0.17300000000E+03 0. -1.
        6    1    1    2  502    0  0.43112252251E+02  0.28299133757E+02  0.27609878731E+02  0.18262204869E+03  0.17300000000E+03 0. -1.
       -6    1    1    2    0  503 -0.88629372169E+02 -0.10739051462E+03 -0.21211867279E+03  0.30710131811E+03  0.17300000000E+03 0.  1.
</event>
<event>
 6   0  0.4500850E-05  0.3545312E+03  0.7546771E-02  0.1061804E+00
       21   -1    0    0  504  503  0.00000000000E+00  0.00000000000E+00  0.48135129710E+03  0.48135129710E+03  0.00000000000E+00 0.  1.
       21   -1    0    0  501  504  0.00000000000E+00  0.00000000000E+00 -0.16907815291E+04  0.16907815291E+04  0.00000000000E+00 0. -1.
        6    1    1    2  501    0 -0.13302168043E+03  0.26173183933E+03  0.14163284729E+03  0.36903548151E+03  0.17300000000E+03 0. -1.
       -6    1    1    2    0  503  0.11447264354E+03  0.19046871212E+03 -0.18108822841E+03  0.33481974685E+03  0.17300000000E+03 0.  1.
        6    1    1    2  502    0  0.23645799418E+03 -0.48121901407E+03 -0.97908928577E+03  0.11296145148E+04  0.17300000000E+03 0. -1.
       -6    1    1    2    0  502 -0.21790895728E+03  0.29018462626E+02 -0.19088556506E+03  0.33866308300E+03  0.17300000000E+03 0.  1.
</event>
<event>
 6   0  0.4500850E-05  0.2229795E+03  0.7546771E-02  0.1135661E+00
       21   -1    0    0  502  503  0.00000000000E+00  0.00000000000E+00  0.56789503270E+03  0.56789503270E+03  0.00000000000E+00 0.  1.
       21   -1    0    0  501  504  0.00000000000E+00  0.00000000000E+00 -0.72255022689E+03  0.72255022689E+03  0.00000000000E+00 0.  1.
        6    1    1    2  501    0 -0.65990956261E+02 -0.14356224785E+02 -0.30072040916E+03  0.35344401534E+03  0.17300000000E+03 0.  1.
       -6    1    1    2    0  504  0.18095979891E+03 -0.11805332796E+03  0.20676790992E+03  0.34549241039E+03  0.17300000000E+03 0.  1.
        6    1    1    2  502    0 -0.11978919255E+03  0.21412158365E+02 -0.23915133631E+03  0.31926523901E+03  0.17300000000E+03 0. -1.
       -6    1    1    2    0  503  0.48203498989E+01  0.11099739438E+03  0.17844864137E+03  0.27224359485E+03  0.17300000000E+03 0.  1.
</event>
<event>
 6   0  0.4500850E-05  0.6747437E+03  0.7546771E-02  0.1003584E+00
       21   -1    0    0  502  503  0.00000000000E+00  0.00000000000E+00  0.14902128722E+04  0.14902128722E+04  0.00000000000E+00 0. -1.
       21   -1    0    0  501  504  0.00000000000E+00  0.00000000000E+00 -0.88509063813E+03  0.88509063813E+03  0.00000000000E+00 0. -1.
        6    1    1    2  501    0  0.18891581478E+03  0.35466110479E+03 -0.60431981427E+03  0.74605973102E+03  0.17300000000E+03 0. -1.
       -6    1    1    2    0  503  0.21695864102E+03 -0.28828382238E+02  0.53840529694E+02  0.28413012894E+03  0.17300000000E+03 0.  1.
        6    1    1    2  502    0 -0.38582703503E+03 -0.17619308530E+03  0.79841652215E+03  0.92049141609E+03  0.17300000000E+03 0. -1.
       -6    1    1    2    0  504 -0.20047420765E+02 -0.14963963725E+03  0.35718499647E+03  0.42462223425E+03  0.17300000000E+03 0. -1.
</event>
<event>
 6   0  0.4500850E-05  0.3802425E+03  0.7546771E-02  0.1050844E+00
        2   -1    0    0  502    0  0.00000000000E+00  0.00000000000E+00  0.15966051290E+04  0.15966051290E+04  0.00000000000E+00 0.  1.
       -2   -1    0    0    0  501  0.00000000000E+00  0.00000000000E+00 -0.20656455175E+03  0.20656455175E+03  0.00000000000E+00 0. -1.
        6    1    1    2  502    0 -0.12416555848E+03 -0.40003435690E+02  0.44872510329E+03  0.49829768121E+03  0.17300000000E+03 0. -1.
       -6    1    1    2    0  501  0.64407780406E+02 -0.94490044300E+02 -0.40939131227E+02  0.21138056466E+03  0.17300000000E+03 0. -1.
        6    1    1    2  503    0 -0.54101951849E+02 -0.54834042946E+02  0.51175813738E+03  0.54567314817E+03  0.17300000000E+03 0.  1.
       -6    1    1    2    0  503  0.11385972993E+03  0.18932752294E+03  0.47049646778E+03  0.54781828670E+03  0.17300000000E+03 0.  1.
</event>
<event>
 6   0  0.4500850E-05  0.1090260E+04  0.7546771E-02  0.9366266E-01
       -1   -1    0    0    0  501  0.00000000000E+00  0.00000000000E+00  0.11804839362E+04  0.11804839362E+04  0.00000000000E+00 0.  1.
        1   -1    0    0  503    0  0.00000000000E+00  0.00000000000E+00 -0.71568127529E+03  0.71568127529E+03  0.00000000000E+00 0. -1.
        6    1    1    2  502    0 -0.22772674534E+03  0.34150920081E+03  0.37188673397E+03  0.58027299410E+03  0.17300000000E+03 0. -1.
       -6    1    1    2    0  502 -0.28135348794E+03 -0.12862340245E+03  0.66878741877E+02  0.36070144295E+03  0.17300000000E+03 0. -1.
        6    1    1    2  503    0 -0.38823091343E+02  0.35744369358E+02 -0.21799267918E+03  0.28325730447E+03  0.17300000000E+03 0. -1.
       -6    1    1    2    0  501  0.54790332463E+03 -0.24863016771E+03  0.24402986428E+03  0.67193346999E+03  0.17300000000E+03 0.  1.
</event>
<event>
 6   0  0.4500850E-05  0.2236389E+03  0.7546771E-02  0.1135810E+00
       21   -1    0    0  501  503  0.00000000000E+00  0.00000000000E+00  0.62884605338E+03  0.62884605338E+03  0.00000000000E+00 0.  1.
       21   -1    0    0  503  504  0.00000000000E+00  0.00000000000E+00 -0.62567568869E+03  0.62567568869E+03  0.00000000000E+00 0.  1.
        6    1    1    2  501    0  0.59657355524E+02 -0.89177559651E+02  0.32598023181E+03  0.38432245412E+03  0.17300000000E+03 0.  1.
       -6    1    1    2    0  504  0.36595532361E+02 -0.53834309224E+02 -0.28803876564E+03  0.34224654323E+03  0.17300000000E+03 0.  1.
        6    1    1    2  502    0 -0.20500112911E+03  0.15972249335E+03  0.28228852183E+02  0.31346866815E+03  0.17300000000E+03 0.  1.
       -6    1    1    2    0  502  0.10874824122E+03 -0.16710624475E+02 -0.62999953653E+02  0.21448407657E+03  0.17300000000E+03 0. -1.
</event>
<event>
 6   0  0.4500850E-05  0.8532524E+03  0.7546771E-02  0.9858309E-01
       21   -1    0    0  501  503  0.00000000000E+00  0.00000000000E+00  0.11597639115E+04  0.11597639115E+04  0.00000000000E+00 0.  1.
       21   -1    0    0  503  504  0.00000000000E+00  0.00000000000E+00 -0.12275599838E+04  0.12275599838E+04  0.00000000000E+00 0.  1.
        6    1    1    2  501    0  0.92197418320E+02 -0.14341736856E+03 -0.24993831722E+03  0.34852125898E+03  0.17300000000E+03 0.  1.
       -6    1    1    2    0  502 -0.83693613465E+03  0.27238200366E+03  0.30528817611E+03  0.94751460141E+03  0.17300000000E+03 0.  1.
        6    1    1    2  502    0  0.80631946408E+03  0.36794071796E+02 -0.27155086355E+02  0.82593660809E+03  0.17300000000E+03 0.  1.
       -6    1    1    2    0  504 -0.61580747748E+02 -0.16575870690E+03 -0.95990844849E+02  0.26535142679E+03  0.17300000000E+03 0. -1.
</event>
<event>
 6   0  0.4500850E-05  0.2126394E+03  0.7546771E-02  0.1144864E+00
       21   -1    0    0  502  503  0.00000000000E+00  0.00000000000E+00  0.23859379404E+03  0.23859379404E+03  0.00000000000E+00 0.  1.
       21   -1    0    0  503  504  0.00000000000E+00  0.00000000000E+00 -0.17789907152E+04  0.17789907152E+04  0.00000000000E+00 0.  1.
        6    1    1    2  501    0 -0.70774082146E+02  0.66033587156E+02 -0.40649937107E+03  0.45226114582E+03  0.17300000000E+03 0.  1.
       -6    1    1    2    0  504  0.19246320974E+03 -0.12388557487E+03 -0.11145589760E+04  0.11508954921E+04  0.17300000000E+03 0.  1.
        6    1    1    2  502    0 -0.12712401281E+03  0.70477659879E+02  0.43026301919E+02  0.23001712508E+03  0.17300000000E+03 0.  1.
       -6    1    1    2    0  501  0.54348852145E+01 -0.12625672171E+02 -0.62364876033E+02  0.18441074626E+03  0.17300000000E+03 0. -1.
</event>
<event>
 6   0  0.4500850E-05  0.6879654E+03  0.7546771E-02  0.9934330E-01
       21   -1    0    0  504  503  0.00000000000E+00  0.00000000000E+00  0.51051501545E+03  0.51051501545E+03  0.00000000000E+00 0.  1.
       21   -1    0    0  501  504  0.00000000000E+00  0.00000000000E+00 -0.17834847030E+04  0.17834847030E+04  0.00000000000E+00 0. -1.
        6    1    1    2  501    0 -0.34090130307E+03 -0.13690568645E+03 -0.95714724196E+03  0.10397195334E+04  0.17300000000E+03 0. -1.
       -6    1    1    2    0  503  0.30870577427E+03  0.13036378449E+02 -0.66087250380E+02  0.36023010270E+03  0.17300000000E+03 0.  1.
        6    1    1    2  502    0  0.34120346107E+03  0.45096989599E+02  0.91576070518E+02  0.39594029476E+03  0.17300000000E+03 0.  1.
       -6    1    1    2    0  502 -0.30900793227E+03  0.78772318403E+02 -0.34131126579E+03  0.49810978760E+03  0.17300000000E+03 0.  1.
</event>
<event>
 6   0  0.4500850E-05  0.2470400E+03  0.7546771E-02  0.1119336E+00
       21   -1    0    0  502  503  0.00000000000E+00  0.00000000000E+00  0.12928812147E+04  0.12928812147E+04  0.00000000000E+00 0. -1.
       21   -1    0    0  503  504  0.00000000000E+00  0.00000000000E+00 -0.10158679117E+04  0.10158679117E+04  0.00000000000E+00 0.  1.
        6    1    1    2  501    0 -0.51565635791E+02  0.13022353934E+03 -0.55747929278E+03  0.60027439298E+03  0.17300000000E+03 0.  1.
       -6    1    1    2    0  504  0.11011994618E+03 -0.18592388027E+03 -0.14144192438E+03  0.31085190971E+03  0.17300000000E+03 0. -1.
        6    1    1    2  502    0  0.76570403608E+02  0.16060758597E+03  0.10978078441E+04  0.11255082789E+04  0.17300000000E+03 0. -1.
       -6    1    1    2    0  501 -0.13512471399E+03 -0.10490724503E+03 -0.12187332395E+03  0.27211454478E+03  0.17300000000E+03 0.  1.
</event>
<event>
 6   0  0.4500850E-05  0.4992247E+03  0.7546771E-02  0.1044587E+00
       21   -1    0    0  504  503  0.00000000000E+00  0.00000000000E+00  0.67005496313E+03  0.67005496313E+03  0.00000000000E+00 0.  1.
       21   -1    0    0  501  504  0.00000000000E+00  0.00000000000E+00 -0.12423842708E+04  0.12423842708E+04  0.00000000000E+00 0.  1.
        6    1    1    2  501    0  0.67503219139E+02 -0.76955950184E+02 -0.48084037029E+03  0.52116730957E+03  0.17300000000E+03 0.  1.
       -6    1    1    2    0  502 -0.35398590256E+03 -0.33628307210E+02 -0.57551646731E+03  0.69827293116E+03  0.17300000000E+03 0.  1.
        6    1    1    2  502    0  0.57992535101E+02  0.57179903030E+00  0.12791444529E+03  0.22283304601E+03  0.17300000000E+03 0.  1.
       -6    1    1    2    0  503  0.22849014832E+03  0.11001245836E+03  0.35611308462E+03  0.47016594721E+03  0.17300000000E+03 0.  1.
</event>
<event>
 6   0  0.4500850E-05  0.5338336E+03  0.7546771E-02  0.1011055E+00
       -2   -1    0    0    0  501  0.00000000000E+00  0.00000000000E+00  0.31957094145E+03  0.31957094145E+03  0.00000000000E+00 0. -1.
        2   -1    0    0  503    0  0.00000000000E+00  0.00000000000E+00 -0.91445557707E+03  0.91445557707E+03  0.00000000000E+00 0.  1.
        6    1    1    2  502    0  0.76193284429E+02 -0.43901742413E+02 -0.19049222326E+03  0.27193577679E+03  0.17300000000E+03 0.  1.
       -6    1    1    2    0  502  0.47775942963E+02  0.17253411217E+03 -0.34430960936E+03  0.42488665275E+03  0.17300000000E+03 0.  1.
        6    1    1    2  503    0 -0.71725237899E+02  0.12223575098E+03 -0.89233759691E+01  0.22381848719E+03  0.17300000000E+03 0. -1.
       -6    1    1    2    0  501 -0.52243989493E+02 -0.25086812073E+03 -0.51159427047E+02  0.31338560180E+03  0.17300000000E+03 0. -1.
</event>
<event>
 6   0  0.4500850E-05  0.2589352E+03  0.7546771E-02  0.1123414E+00
       21   -1    0    0  501  503  0.00000000000E+00  0.00000000000E+00  0.98015519924E+03  0.98015519924E+03  0.00000000000E+00 0. -1.
       21   -1    0    0  502  504  0.00000000000E+00  0.00000000000E+00 -0.51843428566E+03  0.51843428566E+03  0.00000000000E+00 0.  1.
        6    1    1    2  501    0 -0.14561939269E+03 -0.14945504853E+03  0.34830831344E+03  0.44134963495E+03  0.17300000000E+03 0. -1.
       -6    1    1    2    0  503  0.38366635289E+01  0.23307654111E+02  0.26511639431E+03  0.31744868760E+03  0.17300000000E+03 0. -1.
        6    1    1    2  502    0 -0.39632750862E+02  0.60422313667E+02  0.21848898220E+03  0.28790284172E+03  0.17300000000E+03 0. -1.
       -6    1    1    2    0  504  0.18141548003E+03  0.65725080754E+02 -0.37019277637E+03  0.45188832062E+03  0.17300000000E+03 0.  1.
</event>
<event>
 6   0  0.4500850E-05  0.2106181E+03  0.7546771E-02  0.1144254E+00
       21   -1    0    0  504  503  0.00000000000E+00  0.00000000000E+00  0.14155910860E+04  0.14155910860E+04  0.00000000000E+00 0.  1.
       21   -1    0    0  501  504  0.00000000000E+00  0.00000000000E+00 -0.48802373985E+03  0.48802373985E+03  0.00000000000E+00 0.  1.
        6    1    1    2  501    0  0.71584707693E+02  0.73679659261E+02 -0.12427792465E+03  0.23648903805E+03  0.17300000000E+03 0.  1.
       -6    1    1    2    0  503  0.14600945467E+03 -0.13398380229E+03  0.10844242847E+04  0.11158742982E+04  0.17300000000E+03 0.  1.
        6    1    1    2  502    0 -0.49347152380E+02  0.49058382449E+02  0.15731858741E+03  0.24396721968E+03  0.17300000000E+03 0.  1.
       -6    1    1    2    0  502 -0.16824700998E+03  0.11245760578E+02 -0.18989760137E+03  0.30728426986E+03  0.17300000000E+03 0.  1.
</event>
<event>
 6   0  0.4500850E-05  0.2118158E+03  0.7546771E-02  0.1142581E+00
       21   -1    0    0  502  503  0.00000000000E+00  0.00000000000E+00  0.41854369784E+03  0.41854369784E+03  0.00000000000E+00 0. -1.
       21   -1    0    0  501  504  0.00000000000E+00  0.00000000000E+00 -0.61332030965E+03  0.61332030965E+03  0.00000000000E+00 0. -1.
        6    1    1    2  501    0  0.11799127521E+02 -0.79386112549E+02 -0.90661537094E+02  0.21116317999E+03  0.17300000000E+03 0. -1.
       -6    1    1    2    0  503 -0.26684704867E+02 -0.72880577567E+02 -0.25411690201E+03  0.31706159015E+03  0.17300000000E+03 0.  1.
        6    1    1    2  502    0 -0.54010118302E+02 -0.65477708673E+02  0.40459754882E+02  0.19690204412E+03  0.17300000000E+03 0. -1.
       -6    1    1    2    0  504  0.68895695648E+02  0.21774439879E+03  0.10954207241E+03  0.30673719323E+03  0.17300000000E+03 0. -1.
</event>
<event>
 6   0  0.4500850E-05  0.3223029E+03  0.7546771E-02  0.1078197E+00
       21   -1    0    0  504  503  0.00000000000E+00  0.00000000000E+00  0.32463579473E+03  0.32463579473E+03  0.00000000000E+00 0. -1.
       21   -1    0    0  502  504  0.00000000000E+00  0.00000000000E+00 -0.14482225772E+04  0.14482225772E+04  0.00000000000E+00 0. -1.
        6    1    1    2  501    0 -0.18423051344E+03  0.82006964379E+01 -0.25239087520E+03  0.35726501003E+03  0.17300000000E+03 0. -1.
       -6    1    1    2    0  501 -0.13241643447E+02 -0.39427216960E+03 -0.62661991709E+03  0.76039950377E+03  0.17300000000E+03 0.  1.
        6    1    1    2  502    0 -0.72796457636E+01  0.25249384289E+03 -0.15134308634E+03  0.34152578779E+03  0.17300000000E+03 0.  1.
       -6    1    1    2    0  503  0.20475180266E+03  0.13357763026E+03 -0.93232903851E+02  0.31366807035E+03  0.17300000000E+03 0. -1.
</event>
<event>
 6   0  0.4500850E-05  0.2862056E+03  0.7546771E-02  0.1102037E+00
       21   -1    0    0  501  503  0.00000000000E+00  0.00000000000E+00  0.77527371026E+03  0.77527371026E+03  0.00000000000E+00 0. -1.
       21   -1    0    0  502  504  0.00000000000E+00  0.00000000000E+00 -0.68377304994E+03  0.68377304994E+03  0.00000000000E+00 0. -1.
        6    1    1    2  501    0 -0.68721297398E+02 -0.20324903968E+03  0.29194361631E+03  0.40148831110E+03  0.17300000000E+03 0. -1.
       -6    1    1    2    0  504  0.19629957406E+03  0.24529158933E+03 -0.28300601076E+03  0.45686200181E+03  0.17300000000E+03 0. -1.
        6    1    1    2  502    0  0.26638379559E+02  0.19588368677E+03  0.43254830172E+02  0.26623298507E+03  0.17300000000E+03 0. -1.
       -6    1    1    2    0  503 -0.15421665622E+03 -0.23792623642E+03  0.39308224596E+02  0.33446346221E+03  0.17300000000E+03 0.  1.
</event>
<event>
 6   0  0.4500850E-05  0.6445777E+03  0.7546771E-02  0.9867307E-01
       -2   -1    0    0    0  501  0.00000000000E+00  0.00000000000E+00  0.35380946729E+03  0.35380946729E+03  0.00000000000E+00 0.  1.
        2   -1    0    0  502    0  0.00000000000E+00  0.00000000000E+00 -0.11751680783E+04  0.11751680783E+04  0.00000000000E+00 0. -1.
        6    1    1    2  502    0 -0.82474688457E+02 -0.21554200241E+03 -0.10960340909E+03  0.30854875842E+03  0.17300000000E+03 0.  1.
       -6    1    1    2    0  503  0.72052758251E+02 -0.15846679996E+03  0.18827245944E+02  0.24614384382E+03  0.17300000000E+03 0.  1.
        6    1    1    2  503    0 -0.16379542379E+03  0.25632239204E+03 -0.53406762174E+03  0.63850398128E+03  0.17300000000E+03 0. -1.
       -6    1    1    2    0  501  0.17421735400E+03  0.11768641033E+03 -0.19651482614E+03  0.33578096209E+03  0.17300000000E+03 0.  1.
</event>
<event>
 6   0  0.4500850E-05  0.2930546E+03  0.7546771E-02  0.1095959E+00
       21   -1    0    0  502  503  0.00000000000E+00  0.00000000000E+00  0.37444601230E+03  0.37444601230E+03  0.00000000000E+00 0.  1.
       21   -1    0    0  501  504  0.00000000000E+00  0.00000000000E+00 -0.20725076446E+04  0.20725076446E+04  0.00000000000E+00 0. -1.
        6    1    1    2  501    0  0.38452049805E+02  0.35845548146E+03 -0.37728748339E+03  0.54976698469E+03  0.17300000000E+03 0. -1.
       -6    1    1    2    0  504  0.57600818472E+01  0.26839087726E+01 -0.85360813480E+03  0.87098578043E+03  0.17300000000E+03 0. -1.
        6    1    1    2  502    0 -0.16148296913E+03 -0.35587434411E+03 -0.62994404096E+03  0.76123701490E+03  0.17300000000E+03 0.  1.
       -6    1    1    2    0  503  0.11727083747E+03 -0.52650461239E+01  0.16277802685E+03  0.26496387689E+03  0.17300000000E+03 0. -1.
</event>
<event>
 6   0  0.4500850E-05  0.2468516E+03  0.7546771E-02  0.1120184E+00
       21   -1    0    0  502  503  0.00000000000E+00  0.00000000000E+00  0.91482765634E+03  0.91482765634E+03  0.00000000000E+00 0.  1.
       21   -1    0    0  501  504  0.00000000000E+00  0.00000000000E+00 -0.48081150812E+03  0.48081150812E+03  0.00000000000E+00 0.  1.
        6    1    1    2  501    0  0.13095362881E+03  0.25086416634E+02 -0.15392472768E+03  0.26720778991E+03  0.17300000000E+03 0.  1.
       -6    1    1    2    0  503 -0.10565342609E+03  0.10071224877E+03  0.12753304675E+03  0.25980623840E+03  0.17300000000E+03 0. -1.
        6    1    1    2  502    0  0.15348509377E+03 -0.12449353955E+03 -0.79279456004E+02  0.27435478407E+03  0.17300000000E+03 0.  1.
       -6    1    1    2    0  504 -0.17878529649E+03 -0.13051258577E+01  0.53968728516E+03  0.59427035208E+03  0.17300000000E+03 0.  1.
</event>
<event>
 6   0  0.4500850E-05  0.3671642E+03  0.7546771E-02  0.1073878E+00
       21   -1    0    0  501  503  0.00000000000E+00  0.00000000000E+00  0.79111891332E+03  0.79111891332E+03  0.00000000000E+00 0.  1.
       21   -1    0    0  502  504  0.00000000000E+00  0.00000000000E+00 -0.67386049525E+03  0.67386049525E+03  0.00000000000E+00 0.  1.
        6    1    1    2  501    0 -0.79942171120E+02 -0.72795388661E+02 -0.96496101819E+02  0.22567768388E+03  0.17300000000E+03 0.  1.
       -6    1    1    2    0  504  0.65771226280E+02  0.36824277105E+03  0.19693413696E+03  0.45677198572E+03  0.17300000000E+03 0. -1.
        6    1    1    2  502    0  0.28379942563E+03 -0.29354277664E+03 -0.73933862113E+02  0.44956055395E+03  0.17300000000E+03 0.  1.
       -6    1    1    2    0  503 -0.26962848079E+03 -0.19046057500E+01  0.90754245041E+02  0.33296918501E+03  0.17300000000E+03 0. -1.
</event>
<event>
 6   0  0.4500850E-05  0.2246903E+03  0.7546771E-02  0.1138024E+00
       21   -1    0    0  502  503  0.00000000000E+00  0.00000000000E+00  0.13594217979E+04  0.13594217979E+04  0.00000000000E+00 0. -1.
       21   -1    0    0  501  504  0.00000000000E+00  0.00000000000E+00 -0.31470602884E+03  0.31470602884E+03  0.00000000000E+00 0. -1.
        6    1    1    2  501    0 -0.69618894469E+02  0.98722755852E+01  0.47041744049E+03  0.50612826498E+03  0.17300000000E+03 0.  1.
       -6    1    1    2    0  503  0.61470176631E+02  0.38738279460E+02  0.42928905844E+03  0.46850542431E+03  0.17300000000E+03 0. -1.
        6    1    1    2  502    0  0.52851610419E+02  0.12766298457E+03 -0.18245817138E+03  0.28689913673E+03  0.17300000000E+03 0. -1.
       -6    1    1    2    0  504 -0.44702892580E+02 -0.17627353962E+03  0.32746744154E+03  0.41259500075E+03  0.17300000000E+03 0. -1.
</event>
<event>
 6   0  0.4500850E-05  0.2194512E+03  0.7546771E-02  0.1136803E+00
       21   -1    0    0  501  503  0.00000000000E+00  0.00000000000E+00  0.63843242002E+03  0.63843242002E+03  0.00000000000E+00 0. -1.
       21   -1    0    0  502  504  0.00000000000E+00  0.00000000000E+00 -0.48551206936E+03  0.48551206936E+03  0.00000000000E+00 0. -1.
        6    1    1    2  501    0  0.58786872252E+02  0.19185977288E+03 -0.29163572653E+02  0.26654377271E+03  0.17300000000E+03 0.  1.
       -6    1    1    2    0  503  0.84038130893E+00 -0.21880798074E+02  0.11792265553E+03  0.21050944932E+03  0.17300000000E+03 0.  1.
        6    1    1    2  502    0  0.61410281603E+01 -0.18207997675E+03  0.27068276072E+03  0.36930879641E+03  0.17300000000E+03 0. -1.
       -6    1    1    2    0  504 -0.65768281721E+02  0.12101001943E+02 -0.20652149293E+03  0.27758247094E+03  0.17300000000E+03 0. -1.
</event>
<event>
 6   0  0.4500850E-05  0.2581531E+03  0.7546771E-02  0.1111491E+00
       21   -1    0    0  504  503  0.00000000000E+00  0.00000000000E+00  0.41870369809E+03  0.41870369809E+03  0.00000000000E+00 0. -1.
       21   -1    0    0  502  504  0.00000000000E+00  0.00000000000E+00 -0.10269198672E+04  0.10269198672E+04  0.00000000000E+00 0. -1.
        6    1    1    2  501    0  0.27697780136E+03  0.72324020668E+02  0.27618382923E+01  0.33449079832E+03  0.17300000000E+03 0.  1.
       -6    1    1    2    0  503  0.59887565792E+02 -0.41936236510E+02  0.11561729347E+03  0.22054824193E+03  0.17300000000E+03 0. -1.
        6    1    1    2  502    0 -0.22720910986E+03 -0.57216313057E+01 -0.28663020484E+03  0.40465119670E+03  0.17300000000E+03 0. -1.
       -6    1    1    2    0  501 -0.10965625730E+03 -0.24666152852E+02 -0.43996509608E+03  0.48593332838E+03  0.17300000000E+03 0. -1.
</event>
<event>
 6   0  0.4500850E-05  0.2421066E+03  0.7546771E-02  0.1119829E+00
       21   -1    0    0  502  503  0.00000000000E+00  0.00000000000E+00  0.18729965254E+03  0.18729965254E+03  0.00000000000E+00 0.  1.
       21   -1    0    0  503  504  0.00000000000E+00  0.00000000000E+00 -0.15952764959E+04  0.15952764959E+04  0.00000000000E+00 0.  1.
        6    1    1    2  501    0  0.21259322474E+03 -0.68197939852E+02 -0.62206926535E+03  0.68318812131E+03  0.17300000000E+03 0.  1.
       -6    1    1    2    0  504  0.43701195454E+02  0.37528527093E+02 -0.39500643429E+03  0.43506007397E+03  0.17300000000E+03 0.  1.
        6    1    1    2  502    0  0.25064305333E+02 -0.75060510548E+02 -0.14484837588E+03  0.23910740608E+03  0.17300000000E+03 0.  1.
       -6    1    1    2    0  501 -0.28135872553E+03  0.10572992331E+03 -0.24605276786E+03  0.42522054711E+03  0.17300000000E+03 0.  1.
</event>
<event>
 6   0  0.4500850E-05  0.2895945E+03  0.7546771E-02  0.1101185E+00
       21   -1    0    0  504  503  0.00000000000E+00  0.00000000000E+00  0.57748080276E+03  0.57748080276E+03  0.00000000000E+00 0.  1.
       21   -1    0    0  502  504  0.00000000000E+00  0.00000000000E+00 -0.12102764132E+04  0.12102764132E+04  0.00000000000E+00 0. -1.
        6    1    1    2  501    0 -0.27640860085E+03  0.23385894757E+03  0.31594036242E+03  0.51072402977E+03  0.17300000000E+03 0.  1.
       -6    1    1    2    0  503 -0.68629723349E+01 -0.16129294057E+03 -0.15969223998E+03  0.28547000644E+03  0.17300000000E+03 0. -1.
        6    1    1    2  502    0  0.23529006280E+03 -0.61564767814E+02 -0.75041995905E+03  0.80759565949E+03  0.17300000000E+03 0. -1.
       -6    1    1    2    0  501  0.47981510385E+02 -0.11001239182E+02 -0.38623773818E+02  0.18396752025E+03  0.17300000000E+03 0.  1.
</event>
<event>
 6   0  0.4500850E-05  0.3280166E+03  0.7546771E-02  0.1081944E+00
       21   -1    0    0  502  503  0.00000000000E+00  0.00000000000E+00  0.21745663954E+04  0.21745663954E+04  0.00000000000E+00 0. -1.
       21   -1    0    0  503  504  0.00000000000E+00  0.00000000000E+00 -0.22557176453E+03  0.22557176453E+03  0.00000000000E+00 0. -1.
        6    1    1    2  501    0 -0.50958135457E+02 -0.19793579388E+03  0.16373584792E+03  0.31386898216E+03  0.17300000000E+03 0. -1.
       -6    1    1    2    0  501 -0.73160090871E+02 -0.10275323236E+03  0.37689453381E+03  0.43346178064E+03  0.17300000000E+03 0. -1.
        6    1    1    2  502    0 -0.23525715403E+03  0.30834769288E+03  0.97672767364E+03  0.10650587668E+04  0.17300000000E+03 0. -1.
       -6    1    1    2    0  504  0.35937538036E+03 -0.76586666463E+01  0.43163657552E+03  0.58774863038E+03  0.17300000000E+03 0.  1.
</event>
<event>
 6   0  0.4500850E-05  0.2386883E+03  0.7546771E-02  0.1121135E+00
       21   -1    0    0  502  503  0.00000000000E+00  0.00000000000E+00  0.47671570869E+03  0.47671570869E+03  0.00000000000E+00 0. -1.
       21   -1    0    0  501  504  0.00000000000E+00  0.00000000000E+00 -0.29240653047E+04  0.29240653047E+04  0.00000000000E+00 0. -1.
        6    1    1    2  501    0  0.66338057919E+02 -0.93160927112E+02 -0.25385177397E+04  0.25469748745E+04  0.17300000000E+03 0. -1.
       -6    1    1    2    0  504 -0.17512743079E+02  0.23185601684E+03  0.17858802236E+03  0.34042119564E+03  0.17300000000E+03 0. -1.
        6    1    1    2  502    0 -0.99054314834E+02  0.45493627628E+02 -0.14338386295E+03  0.24973858251E+03  0.17300000000E+03 0.  1.
       -6    1    1    2    0  503  0.50228999994E+02 -0.18418871735E+03  0.55963984246E+02  0.26364636082E+03  0.17300000000E+03 0. -1.
</event>
<event>
 6   0  0.4500850E-05  0.3011048E+03  0.7546771E-02  0.1093753E+00
       21   -1    0    0  502  503  0.00000000000E+00  0.00000000000E+00  0.48473439762E+03  0.48473439762E+03  0.00000000000E+00 0. -1.
       21   -1    0    0  501  504  0.00000000000E+00  0.00000000000E+00 -0.18338776864E+04  0.18338776864E+04  0.00000000000E+00 0.  1.
        6    1    1    2  501    0 -0.34243893192E+02  0.88706604900E+02 -0.93007801004E+02  0.21822226518E+03  0.17300000000E+03 0. -1.
       -6    1    1    2    0  503 -0.32528247284E+02 -0.26458769247E+03 -0.98859042724E+03  0.10384145447E+04  0.17300000000E+03 0.  1.
        6    1    1    2  502    0  0.24637845874E+03  0.18204271105E+03  0.28692347540E+03  0.45397794474E+03  0.17300000000E+03 0. -1.
       -6    1    1    2    0  504 -0.17960631826E+03 -0.61616234739E+01 -0.55446853591E+03  0.60799732934E+03  0.17300000000E+03 0.  1.
</event>
<event>
 6   0  0.4500850E-05  0.3026395E+03  0.7546771E-02  0.1096294E+00
       21   -1    0    0  504  503  0.00000000000E+00  0.00000000000E+00  0.27497078731E+03  0.27497078731E+03  0.00000000000E+00 0. -1.
       21   -1    0    0  502  504  0.00000000000E+00  0.00000000000E+00 -0.19908079174E+04  0.19908079174E+04  0.00000000000E+00 0.  1.
        6    1    1    2  501    0 -0.13147842071E+03 -0.90448791945E+02 -0.17002332138E+03  0.29035235299E+03  0.17300000000E+03 0. -1.
       -6    1    1    2    0  503 -0.83870966946E+02 -0.10333115358E+03  0.67092738166E+02  0.22834645150E+03  0.17300000000E+03 0. -1.
        6    1    1    2  502    0  0.20225619091E+02  0.32711206597E+03 -0.10318584337E+04  0.10963905357E+04  0.17300000000E+03 0. -1.
       -6    1    1    2    0  501  0.19512376856E+03 -0.13333212044E+03 -0.58104811315E+03  0.65068936459E+03  0.17300000000E+03 0.  1.
</event>
<event>
 6   0  0.4500850E-05  0.3871845E+03  0.7546771E-02  0.1065591E+00
       21   -1    0    0  502  503  0.00000000000E+00  0.00000000000E+00  0.24377807807E+04  0.24377807807E+04  0.00000000000E+00 0.  1.
       21   -1    0    0  503  504  0.00000000000E+00  0.00000000000E+00 -0.50717701731E+03  0.50717701731E+03  0.00000000000E+00 0.  1.
        6    1    1    2  501    0  0.15654883057E+03  0.47132517960E+02  0.19309517155E+03  0.30650245656E+03  0.17300000000E+03 0. -1.
       -6    1    1    2    0  504 -0.29198111111E+03 -0.67968347081E+02 -0.26235332108E+03  0.43431662474E+03  0.17300000000E+03 0.  1.
        6    1    1    2  502    0 -0.24219267859E+03  0.27291526205E+01  0.20416521189E+03  0.36093929626E+03  0.17300000000E+03 0.  1.
       -6    1    1    2    0  501  0.37762495912E+03  0.18106676501E+02  0.17956967010E+04  0.18431994204E+04  0.17300000000E+03 0.  1.
</event>
<event>
 6   0  0.4500850E-05  0.2562160E+03  0.7546771E-02  0.1110543E+00
       21   -1    0    0  502  503  0.00000000000E+00  0.00000000000E+00  0.10467152204E+04  0.10467152204E+04  0.00000000000E+00 0.  1.
       21   -1    0    0  503  504  0.00000000000E+00  0.00000000000E+00 -0.46866177967E+03  0.46866177967E+03  0.00000000000E+00 0. -1.
        6    1    1    2  501    0 -0.26567535762E+03 -0.16021321965E+03  0.36923686152E+03  0.51236367094E+03  0.17300000000E+03 0. -1.
       -6    1    1    2    0  504 -0.26061398859E+02  0.63604469120E+02 -0.17339044134E+03  0.25439726837E+03  0.17300000000E+03 0. -1.
        6    1    1    2  502    0  0.60406581777E+02 -0.64030764795E+02  0.37004609706E+03  0.41786601670E+03  0.17300000000E+03 0.  1.
       -6    1    1    2    0  501  0.23133017470E+03  0.16063951533E+03  0.12160923535E+02  0.33075004410E+03  0.17300000000E+03 0. -1.
</event>
<event>
 6   0  0.4500850E-05  0.2468716E+03  0.7546771E-02  0.1118230E+00
       21   -1    0    0  504  503  0.00000000000E+00  0.00000000000E+00  0.45597420510E+03  0.45597420510E+03  0.00000000000E+00 0.  1.
       21   -1    0    0  502  504  0.00000000000E+00  0.00000000000E+00 -0.11235021374E+04  0.11235021374E+04  0.00000000000E+00 0.  1.
        6    1    1    2  501    0 -0.17869880303E+03  0.23669918227E+03 -0.53306151724E+03  0.63406888132E+03  0.17300000000E+03 0.  1.
       -6    1    1    2    0  501  0.12096795982E+03 -0.94525069788E+02  0.90155066513E+02  0.24824417846E+03  0.17300000000E+03 0. -1.
        6    1    1    2  502    0  0.12723269634E+03 -0.17320612869E+03 -0.36799502571E+03  0.45993245263E+03  0.17300000000E+03 0.  1.
       -6    1    1    2    0  503 -0.69501853134E+02  0.31032016206E+02  0.14337354410E+03  0.23723083013E+03  0.17300000000E+03 0. -1.
</event>
<event>
 6   0  0.4500850E-05  0.2421139E+03  0.7546771E-02  0.1121837E+00
       21   -1    0    0  502  503  0.00000000000E+00  0.00000000000E+00  0.65009661061E+03  0.65009661061E+03  0.00000000000E+00 0.  1.
       21   -1    0    0  503  504  0.00000000000E+00  0.00000000000E+00 -0.69339193773E+03  0.69339193773E+03  0.00000000000E+00 0. -1.
        6    1    1    2  501    0 -0.51455903369E+02 -0.31560248215E+02  0.10129383977E+03  0.20936380116E+03  0.17300000000E+03 0. -1.
       -6    1    1    2    0  501 -0.22295825181E+02 -0.18437316345E+03  0.10654330692E+03  0.27526540551E+03  0.17300000000E+03 0.  1.
        6    1    1    2  502    0  0.15692863019E+03  0.26597085548E+03  0.17049827530E+03  0.39289407328E+03  0.17300000000E+03 0. -1.
       -6    1    1    2    0  504 -0.83176901644E+02 -0.50037443820E+02 -0.42163074912E+03  0.46596526840E+03  0.17300000000E+03 0. -1.
</event>
<event>
 6   0  0.4500850E-05  0.6286060E+03  0.7546771E-02  0.1022486E+00
       21   -1    0    0  501  503  0.00000000000E+00  0.00000000000E+00  0.29796384055E+04  0.29796384055E+04  0.00000000000E+00 0. -1.
       21   -1    0    0  503  504  0.00000000000E+00  0.00000000000E+00 -0.66873884837E+03  0.66873884837E+03  0.00000000000E+00 0. -1.
        6    1    1    2  501    0 -0.11273748667E+03 -0.52274156257E+02  0.67400595852E+03  0.70686304220E+03  0.17300000000E+03 0. -1.
       -6    1    1    2    0  502 -0.24175676285E+02  0.82380958187E+02  0.14851815453E+04  0.14976863183E+04  0.17300000000E+03 0. -1.
        6    1    1    2  502    0 -0.42003905280E+03 -0.32837534074E+03  0.45501968696E+03  0.72196612511E+03  0.17300000000E+03 0.  1.
       -6    1    1    2    0  504  0.55695221575E+03  0.29826853881E+03 -0.30330763362E+03  0.72186176827E+03  0.17300000000E+03 0. -1.
</event>
<event>
 6   0  0.4500850E-05  0.2393662E+03  0.7546771E-02  0.1126931E+00
       21   -1    0    0  504  503  0.00000000000E+00  0.00000000000E+00  0.13881836895E+04  0.13881836895E+04  0.00000000000E+00 0.  1.
       21   -1    0    0  502  504  0.00000000000E+00  0.00000000000E+00 -0.48755765616E+03  0.48755765616E+03  0.00000000000E+00 0.  1.
        6    1    1    2  501    0 -0.12092880818E+03 -0.82004584824E+02  0.60542354397E+03  0.64638625927E+03  0.17300000000E+03 0. -1.
       -6    1    1    2    0  503  0.18134458970E+03 -0.83306365865E+02  0.59665348248E+03  0.65249535551E+03  0.17300000000E+03 0.  1.
        6    1    1    2  502    0 -0.11010580359E+02  0.23994977043E+03 -0.16345816751E+03  0.33814892834E+03  0.17300000000E+03 0.  1.
       -6    1    1    2    0  501 -0.49405201160E+02 -0.74638819737E+02 -0.13799282562E+03  0.23871080251E+03  0.17300000000E+03 0.  1.
</event>
<event>
 6   0  0.4500850E-05  0.2257434E+03  0.7546771E-02  0.1130655E+00
       21   -1    0    0  501  503  0.00000000000E+00  0.00000000000E+00  0.46835995424E+03  0.46835995424E+03  0.00000000000E+00 0.  1.
       21   -1    0    0  502  504  0.00000000000E+00  0.00000000000E+00 -0.87272587795E+03  0.87272587795E+03  0.00000000000E+00 0.  1.
        6    1    1    2  501    0  0.75573095405E+02 -0.19731339344E+02 -0.29403708637E+03  0.34998203763E+03  0.17300000000E+03 0. -1.
       -6    1    1    2    0  504  0.22674771869E+03 -0.52012185353E+02 -0.24387500853E+03  0.37884537102E+03  0.17300000000E+03 0.  1.
        6    1    1    2  502    0 -0.64520041035E+02 -0.26328171099E+01 -0.11719533584E+03  0.21870874277E+03  0.17300000000E+03 0. -1.
       -6    1    1    2    0  503 -0.23780077306E+03  0.74376341807E+02  0.25074150703E+03  0.39354968077E+03  0.17300000000E+03 0.  1.
</event>
<event>
 6   0  0.4500850E-05  0.2279759E+03  0.7546771E-02  0.1128156E+00
       21   -1    0    0  502  503  0.00000000000E+00  0.00000000000E+00  0.33657804501E+03  0.33657804501E+03  0.00000000000E+00 0.  1.
       21   -1    0    0  501  504  0.00000000000E+00  0.00000000000E+00 -0.36083965520E+04  0.36083965520E+04  0.00000000000E+00 0.  1.
        6    1    1    2  501    0  0.56753439935E+02  0.25253249680E+02 -0.25874836487E+04  0.25940044934E+04  0.17300000000E+03 0.  1.
       -6    1    1    2    0  503 -0.95392129794E+02  0.20596444007E+03 -0.79706895190E+03  0.84662206626E+03  0.17300000000E+03 0.  1.
        6    1    1    2  502    0 -0.36854882299E+02 -0.49843292764E+02  0.15346873419E+03  0.23942491215E+03  0.17300000000E+03 0.  1.
       -6    1    1    2    0  504  0.75493572158E+02 -0.18137439699E+03 -0.40734640594E+02  0.26492312520E+03  0.17300000000E+03 0.  1.
</event>
<event>
 6   0  0.4500850E-05  0.2044848E+03  0.7546771E-02  0.1148956E+00
       21   -1    0    0  504  503  0.00000000000E+00  0.00000000000E+00  0.29985091851E+03  0.29985091851E+03  0.00000000000E+00 0.  1.
       21   -1    0    0  502  504  0.00000000000E+00  0.00000000000E+00 -0.10983557160E+04  0.10983557160E+04  0.00000000000E+00 0.  1.
        6    1    1    2  501    0  0.69317929801E+02 -0.96254621383E+02 -0.15742963181E+03  0.26226516448E+03  0.17300000000E+03 0.  1.
       -6    1    1    2    0  501 -0.14466518804E+02  0.15157386580E+03 -0.27746375792E+03  0.36069246446E+03  0.17300000000E+03 0. -1.
        6    1    1    2  502    0 -0.33855142499E+02  0.23328216090E+02 -0.50633992536E+03  0.53665584535E+03  0.17300000000E+03 0.  1.
       -6    1    1    2    0  503 -0.20996268498E+02 -0.78647460504E+02  0.14272851764E+03  0.23859316017E+03  0.17300000000E+03 0.  1.
</event>
<event>
 6   0  0.4500850E-05  0.4204063E+03  0.7546771E-02  0.1037296E+00
       21   -1    0    0  501  503  0.00000000000E+00  0.00000000000E+00  0.40846808157E+03  0.40846808157E+03  0.00000000000E+00 0. -1.
       21   -1    0    0  502  504  0.00000000000E+00  0.00000000000E+00 -0.45220966043E+03  0.45220966043E+03  0.00000000000E+00 0. -1.
        6    1    1    2  501    0 -0.30010942061E+02 -0.10277343618E+03  0.69800713172E+02  0.21509108626E+03  0.17300000000E+03 0. -1.
       -6    1    1    2    0  503  0.80986767053E+02  0.94753434166E+02 -0.49018866756E+02  0.21878966845E+03  0.17300000000E+03 0. -1.
        6    1    1    2  502    0  0.31159634551E+02  0.99484752905E+02 -0.72012047807E+02  0.21443617679E+03  0.17300000000E+03 0. -1.
       -6    1    1    2    0  504 -0.82135459543E+02 -0.91464750890E+02  0.74886225324E+01  0.21236081050E+03  0.17300000000E+03 0.  1.
</event>
<event>
 6   0  0.4500850E-05  0.2966158E+03  0.7546771E-02  0.1101525E+00
       21   -1    0    0  504  503  0.00000000000E+00  0.00000000000E+00  0.46096683419E+03  0.46096683419E+03  0.00000000000E+00 0. -1.
       21   -1    0    0  502  504  0.00000000000E+00  0.00000000000E+00 -0.13134838997E+04  0.13134838997E+04  0.00000000000E+00 0.  1.
        6    1    1    2  501    0 -0.21318171915E+03  0.98483749527E+02  0.25614169589E+03  0.38817916311E+03  0.17300000000E+03 0. -1.
       -6    1    1    2    0  501  0.26184147278E+03 -0.17785988057E+03 -0.73387945013E+03  0.81774271095E+03  0.17300000000E+03 0.  1.
        6    1    1    2  502    0  0.46878981063E+02  0.12287226536E+03 -0.24798800056E+03  0.32973061866E+03  0.17300000000E+03 0.  1.
       -6    1    1    2    0  503 -0.95538734693E+02 -0.43496134318E+02 -0.12679131076E+03  0.23879824122E+03  0.17300000000E+03 0. -1.
</event>
<event>
 6   0  0.4500850E-05  0.5753869E+03  0.7546771E-02  0.1002037E+00
       -2   -1    0    0    0  501  0.00000000000E+00  0.00000000000E+00  0.29450123660E+03  0.29450123660E+03  0.00000000000E+00 0. -1.
        2   -1    0    0  503    0  0.00000000000E+00  0.00000000000E+00 -0.19436778007E+04  0.19436778007E+04  0.00000000000E+00 0.  1.
        6    1    1    2  502    0 -0.31212296206E+02 -0.65849760644E+02 -0.98736038154E+02  0.21210422825E+03  0.17300000000E+03 0. -1.
       -6    1    1    2    0  502 -0.78780288732E+02 -0.13291533833E+03  0.11868834119E+03  0.26055468407E+03  0.17300000000E+03 0. -1.
        6    1    1    2  503    0  0.16294534564E+03 -0.44485656782E+02 -0.10319929865E+04  0.10599380565E+04  0.17300000000E+03 0.  1.
       -6    1    1    2    0  501 -0.52952760704E+02  0.24325075575E+03 -0.63713588061E+03  0.70558206851E+03  0.17300000000E+03 0.  1.
</event>
<event>
 6   0  0.4500850E-05  0.2188366E+03  0.7546771E-02  0.1142872E+00
       21   -1    0    0  501  503  0.00000000000E+00  0.00000000000E+00  0.13679140409E+04  0.13679140409E+04  0.00000000000E+00 0.  1.
       21   -1    0    0  502  504  0.00000000000E+00  0.00000000000E+00 -0.38798685747E+03  0.38798685747E+03  0.00000000000E+00 0.  1.
        6    1    1    2  501    0 -0.85836453747E+02 -0.84515964200E+02  0.37067404006E+03  0.42642594781E+03  0.17300000000E+03 0.  1.
       -6    1    1    2    0  504  0.81280406480E+02  0.22015884675E+03  0.81113343010E+03  0.86194133426E+03  0.17300000000E+03 0. -1.
        6    1    1    2  502    0  0.20977072437E+02 -0.13520485186E+03 -0.19372829622E+03  0.29356437504E+03  0.17300000000E+03 0.  1.
       -6    1    1    2    0  503 -0.16421025170E+02 -0.43803069178E+00 -0.81519905405E+01  0.17396924121E+03  0.17300000000E+03 0.  1.
</event>
<event>
 6   0  0.4500850E-05  0.2270170E+03  0.7546771E-02  0.1133862E+00
       21   -1    0    0  504  503  0.00000000000E+00  0.00000000000E+00  0.18046329465E+04  0.18046329465E+04  0.00000000000E+00 0.  1.
       21   -1    0    0  501  504  0.00000000000E+00  0.00000000000E+00 -0.20691172512E+03  0.20691172512E+03  0.00000000000E+00 0. -1.
        6    1    1    2  501    0 -0.20294625681E+03 -0.78442677660E+02  0.31375735687E+03  0.41918148316E+03  0.17300000000E+03 0.  1.
       -6    1    1    2    0  503  0.17726607537E+03 -0.21748255028E+02  0.36608059947E+03  0.44253842023E+03  0.17300000000E+03 0. -1.
        6    1    1    2  502    0 -0.51073564372E+02  0.17250979766E+02  0.92547481643E+03  0.94304758158E+03  0.17300000000E+03 0.  1.
       -6    1    1    2    0  502  0.76753745812E+02  0.82939952922E+02 -0.75915513363E+01  0.20677718670E+03  0.17300000000E+03 0. -1.
</event>
<event>
 6   0  0.4500850E-05  0.2742280E+03  0.7546771E-02  0.1116133E+00
       21   -1    0    0  504  503  0.00000000000E+00  0.00000000000E+00  0.66790332531E+03  0.66790332531E+03  0.00000000000E+00 0. -1.
       21   -1    0    0  501  504  0.00000000000E+00  0.00000000000E+00 -0.20545708683E+04  0.20545708683E+04  0.00000000000E+00 0. -1.
        6    1    1    2  501    0  0.33155941414E+02 -0.87248325328E+01 -0.12511257033E+04  0.12634951384E+04  0.17300000000E+03 0.  1.
       -6    1    1    2    0  503  0.20646300707E+03 -0.54590541522E+02  0.50367194265E+03  0.57377829021E+03  0.17300000000E+03 0. -1.
        6    1    1    2  502    0 -0.19285618308E+03  0.86190510048E+02 -0.61478222266E+02  0.27987654990E+03  0.17300000000E+03 0. -1.
       -6    1    1    2    0  502 -0.46762765403E+02 -0.22875135992E+02 -0.57773556006E+03  0.60532421513E+03  0.17300000000E+03 0. -1.
</event>
<event>
 6   0  0.4500850E-05  0.5326592E+03  0.7546771E-02  0.1041652E+00
       21   -1    0    0  502  503  0.00000000000E+00  0.00000000000E+00  0.43208565456E+03  0.43208565456E+03  0.00000000000E+00 0.  1.
       21   -1    0    0  503  504  0.00000000000E+00  0.00000000000E+00 -0.13959007014E+04  0.13959007014E+04  0.00000000000E+00 0. -1.
        6    1    1    2  501    0 -0.20733659968E+03  0.60485622302E+02 -0.60302897814E+03  0.66349071173E+03  0.17300000000E+03 0. -1.
       -6    1    1    2    0  501  0.45940996604E+01 -0.50033843210E+02  0.34714645886E+02  0.18346279693E+03  0.17300000000E+03 0.  1.
        6    1    1    2  502    0  0.39169311966E+03 -0.39045187471E+01  0.84902306686E+02  0.43655027997E+03  0.17300000000E+03 0.  1.
       -6    1    1    2    0  504 -0.18895061965E+03 -0.65472603449E+01 -0.48040302126E+03  0.54448256732E+03  0.17300000000E+03 0.  1.
</event>
<event>
 6   0  0.4500850E-05  0.6114550E+03  0.7546771E-02  0.1007541E+00
       21   -1    0    0  502  503  0.00000000000E+00  0.00000000000E+00  0.81755984466E+03  0.81755984466E+03  0.00000000000E+00 0.  1.
       21   -1    0    0  501  504  0.00000000000E+00  0.00000000000E+00 -0.14457941355E+04  0.14457941355E+04  0.00000000000E+00 0.  1.
        6    1    1    2  501    0  0.14199108020E+03  0.57557270311E+02  0.16331181667E+03  0.28297359539E+03  0.17300000000E+03 0. -1.
       -6    1    1    2    0  503  0.98018902660E+02  0.28679925169E+03  0.22855100755E+03  0.41716433105E+03  0.17300000000E+03 0.  1.
        6    1    1    2  502    0 -0.11827595187E+03 -0.59945340679E+03 -0.17989237874E+03  0.66001807220E+03  0.17300000000E+03 0.  1.
       -6    1    1    2    0  504 -0.12173403098E+03  0.25509688479E+03 -0.84020473630E+03  0.90319798153E+03  0.17300000000E+03 0. -1.
</event>
<event>
 6   0  0.4500850E-05  0.2980626E+03  0.7546771E-02  0.1103652E+00
       21   -1    0    0  501  503  0.00000000000E+00  0.00000000000E+00  0.10712076486E+04  0.10712076486E+04  0.00000000000E+00 0.  1.
       21   -1    0    0  502  504  0.00000000000E+00  0.00000000000E+00 -0.37737317412E+03  0.37737317412E+03  0.00000000000E+00 0.  1.
        6    1    1    2  501    0 -0.19420392539E+03  0.28601834729E+03  0.56617157540E+02  0.39071237778E+03  0.17300000000E+03 0.  1.
       -6    1    1    2    0  504  0.22586846042E+03 -0.26354571018E+02  0.32392544511E+02  0.28755764946E+03  0.17300000000E+03 0.  1.
        6    1    1    2  502    0 -0.36916803702E+02 -0.15812389033E+02  0.21012988559E+03  0.27512987998E+03  0.17300000000E+03 0. -1.
       -6    1    1    2    0  503  0.52522686742E+01 -0.24385138724E+03  0.39469488687E+03  0.49518091553E+03  0.17300000000E+03 0.  1.
</event>
<event>
 6   0  0.4500850E-05  0.2045922E+03  0.7546771E-02  0.1150533E+00
       21   -1    0    0  502  503  0.00000000000E+00  0.00000000000E+00  0.63518965325E+03  0.63518965325E+03  0.00000000000E+00 0.  1.
       21   -1    0    0  503  504  0.00000000000E+00  0.00000000000E+00 -0.41004100762E+03  0.41004100762E+03  0.00000000000E+00 0.  1.
        6    1    1    2  501    0  0.16423509510E+03 -0.73965422759E+02  0.26886190208E+03  0.36696017852E+03  0.17300000000E+03 0.  1.
       -6    1    1    2    0  501 -0.10999804122E+02 -0.18352533330E+02  0.14148762912E+02  0.17489139105E+03  0.17300000000E+03 0. -1.
        6    1    1    2  502    0 -0.86654761954E+02 -0.60822447973E+01  0.12044199235E+03  0.22799411175E+03  0.17300000000E+03 0.  1.
       -6    1    1    2    0  504 -0.66580529020E+02  0.98400200886E+02 -0.17830401170E+03  0.27538497956E+03  0.17300000000E+03 0.  1.
</event>
<event>
 6   0  0.4500850E-05  0.7157935E+03  0.7546771E-02  0.1011929E+00
       21   -1    0    0  504  503  0.00000000000E+00  0.00000000000E+00  0.14552015739E+04  0.14552015739E+04  0.00000000000E+00 0.  1.
       21   -1    0    0  502  504  0.00000000000E+00  0.00000000000E+00 -0.10456008432E+04  0.10456008432E+04  0.00000000000E+00 0. -1.
        6    1    1    2  501    0  0.64169794359E+03  0.11171151426E+03  0.79601767318E+03  0.10429903400E+04  0.17300000000E+03 0.  1.
       -6    1    1    2    0  501 -0.58761906702E+03 -0.40505659184E+03 -0.53146718184E+03  0.90650613671E+03  0.17300000000E+03 0. -1.
        6    1    1    2  502    0  0.50549523046E+02  0.72912964719E+01  0.67027889504E+02  0.19243220951E+03  0.17300000000E+03 0. -1.
       -6    1    1    2    0  503 -0.10462839962E+03  0.28605378111E+03  0.78022349872E+02  0.35887373096E+03  0.17300000000E+03 0.  1.
</event>
<event>
 6   0  0.4500850E-05  0.2130441E+03  0.7546771E-02  0.1141069E+00
       21   -1    0    0  502  503  0.00000000000E+00  0.00000000000E+00  0.21728084804E+03  0.21728084804E+03  0.00000000000E+00 0.  1.
       21   -1    0    0  501  504  0.00000000000E+00  0.00000000000E+00 -0.12769186802E+04  0.12769186802E+04  0.00000000000E+00 0.  1.
        6    1    1    2  501    0 -0.76721557998E+02 -0.11219361994E+02 -0.98848209412E+02  0.21380374190E+03  0.17300000000E+03 0.  1.
       -6    1    1    2    0  504 -0.28773037868E+02 -0.62171466787E+02 -0.70472496867E+03  0.72887547665E+03  0.17300000000E+03 0.  1.
        6    1    1    2  502    0 -0.60901111775E+02  0.14813534733E+03 -0.14412745637E+03  0.27632363313E+03  0.17300000000E+03 0.  1.
       -6    1    1    2    0  503  0.16639570764E+03 -0.74744518554E+02 -0.11193719775E+03  0.27519667661E+03  0.17300000000E+03 0.  1.
</event>
<event>
 6   0  0.4500850E-05  0.3812741E+03  0.7546771E-02  0.1055074E+00
       21   -1    0    0  504  503  0.00000000000E+00  0.00000000000E+00  0.39293552405E+03  0.39293552405E+03  0.00000000000E+00 0. -1.
       21   -1    0    0  502  504  0.00000000000E+00  0.00000000000E+00 -0.21141866287E+04  0.21141866287E+04  0.00000000000E+00 0. -1.
        6    1    1    2  501    0  0.10163058963E+03 -0.22973916250E+03 -0.25080769509E+03  0.39489537785E+03  0.17300000000E+03 0. -1.
       -6    1    1    2    0  503 -0.30811586267E+03  0.56227467953E+03 -0.21428652771E+03  0.69780793635E+03  0.17300000000E+03 0. -1.
        6    1    1    2  502    0 -0.82063030853E+02 -0.22553806882E+03 -0.52981006406E+03  0.60681913739E+03  0.17300000000E+03 0.  1.
       -6    1    1    2    0  501  0.28854830390E+03 -0.10699744822E+03 -0.72634681782E+03  0.80759970119E+03  0.17300000000E+03 0. -1.
</event>
<event>
 6   0  0.4500850E-05  0.4084084E+03  0.7546771E-02  0.1055608E+00
       21   -1    0    0  504  503  0.00000000000E+00  0.00000000000E+00  0.58800341561E+03  0.58800341561E+03  0.00000000000E+00 0. -1.
       21   -1    0    0  501  504  0.00000000000E+00  0.00000000000E+00 -0.18887895001E+04  0.18887895001E+04  0.00000000000E+00 0.  1.
        6    1    1    2  501    0  0.12876552532E+03 -0.39644228962E+03 -0.79073899812E+03  0.91046373495E+03  0.17300000000E+03 0.  1.
       -6    1    1    2    0  502 -0.46115335552E+03 -0.19544643506E+01 -0.47081709222E+03  0.68136918888E+03  0.17300000000E+03 0.  1.
        6    1    1    2  502    0  0.13813364918E+03  0.30786055334E+03 -0.31666148917E+03  0.49402684549E+03  0.17300000000E+03 0. -1.
       -6    1    1    2    0  503  0.19425418101E+03  0.90536200636E+02  0.27743149506E+03  0.39093314635E+03  0.17300000000E+03 0. -1.
</event>
<event>
 6   0  0.4500850E-05  0.2014277E+03  0.7546771E-02  0.1151071E+00
       21   -1    0    0  502  503  0.00000000000E+00  0.00000000000E+00  0.18658284415E+04  0.18658284415E+04  0.00000000000E+00 0.  1.
       21   -1    0    0  501  504  0.00000000000E+00  0.00000000000E+00 -0.16802312762E+03  0.16802312762E+03  0.00000000000E+00 0.  1.
        6    1    1    2  501    0  0.27037350598E+02 -0.80507712966E+02  0.31657425920E+03  0.37062214149E+03  0.17300000000E+03 0. -1.
       -6    1    1    2    0  503 -0.72138180025E+00 -0.51754478655E+02  0.65903183482E+03  0.68332350008E+03  0.17300000000E+03 0.  1.
        6    1    1    2  502    0 -0.10903176378E+03  0.13035474990E+03  0.74807575260E+03  0.78640105414E+03  0.17300000000E+03 0.  1.
       -6    1    1    2    0  504  0.82715794980E+02  0.19074417165E+01 -0.25876532768E+02  0.19350487338E+03  0.17300000000E+03 0.  1.
</event>
<event>
 6   0  0.4500850E-05  0.5734215E+03  0.7546771E-02  0.1028973E+00
       21   -1    0    0  502  503  0.00000000000E+00  0.00000000000E+00  0.58937874995E+03  0.58937874995E+03  0.00000000000E+00 0.  1.
       21   -1    0    0  501  504  0.00000000000E+00  0.00000000000E+00 -0.11432104757E+04  0.11432104757E+04  0.00000000000E+00 0. -1.
        6    1    1    2  501    0  0.11548072715E+02 -0.79258237739E+02 -0.39093216330E+03  0.43493928603E+03  0.17300000000E+03 0. -1.
       -6    1    1    2    0  503  0.47525101958E+03  0.13636306826E+03  0.21269787035E+03  0.56535634962E+03  0.17300000000E+03 0.  1.
        6    1    1    2  502    0 -0.24956848160E+03  0.64940135706E+02 -0.19316674927E+03  0.36571032424E+03  0.17300000000E+03 0. -1.
       -6    1    1    2    0  504 -0.23723061070E+03 -0.12204496623E+03 -0.18243068352E+03  0.36658326574E+03  0.17300000000E+03 0. -1.
</event>
<event>
 6   0  0.4500850E-05  0.2353290E+03  0.7546771E-02  0.1125637E+00
       21   -1    0    0  504  503  0.00000000000E+00  0.00000000000E+00  0.99044704873E+03  0.99044704873E+03  0.00000000000E+00 0.  1.
       21   -1    0    0  501  504  0.00000000000E+00  0.00000000000E+00 -0.67425473433E+03  0.67425473433E+03  0.00000000000E+00 0. -1.
        6    1    1    2  501    0 -0.60585026683E+02 -0.32651908302E+02 -0.14560008791E+03  0.23635794502E+03  0.17300000000E+03 0. -1.
       -6    1    1    2    0  503 -0.24616893577E+03 -0.30246271689E+02  0.66758928347E+03  0.73288364239E+03  0.17300000000E+03 0.  1.
        6    1    1    2  502    0  0.17357804115E+02 -0.15929399865E+01  0.12857415486E+03  0.21625018872E+03  0.17300000000E+03 0.  1.
       -6    1    1    2    0  502  0.28939615834E+03  0.64491119977E+02 -0.33437103602E+03  0.47921000694E+03  0.17300000000E+03 0. -1.
</event>
<event>
 6   0  0.4500850E-05  0.3304614E+03  0.7546771E-02  0.1076066E+00
       21   -1    0    0  502  503  0.00000000000E+00  0.00000000000E+00  0.15645740495E+04  0.15645740495E+04  0.00000000000E+00 0. -1.
       21   -1    0    0  501  504  0.00000000000E+00  0.00000000000E+00 -0.63830455153E+03  0.63830455153E+03  0.00000000000E+00 0. -1.
        6    1    1    2  501    0 -0.16585969079E+03  0.45313744478E+02 -0.13049658691E+02  0.24425819548E+03  0.17300000000E+03 0. -1.
       -6    1    1    2    0  503  0.53407401428E+03 -0.78818087628E+02  0.10380139015E+04  0.11827295563E+04  0.17300000000E+03 0. -1.
        6    1    1    2  502    0 -0.23487383323E+03  0.50178986181E+02 -0.33946007847E+03  0.45038405063E+03  0.17300000000E+03 0. -1.
       -6    1    1    2    0  504 -0.13334049027E+03 -0.16674643031E+02  0.24076533368E+03  0.32550679865E+03  0.17300000000E+03 0. -1.
</event>
<event>
 6   0  0.4500850E-05  0.2640634E+03  0.7546771E-02  0.1119473E+00
       21   -1    0    0  501  503  0.00000000000E+00  0.00000000000E+00  0.70093321146E+03  0.70093321146E+03  0.00000000000E+00 0. -1.
       21   -1    0    0  502  504  0.00000000000E+00  0.00000000000E+00 -0.91677113016E+03  0.91677113016E+03  0.00000000000E+00 0. -1.
        6    1    1    2  501    0  0.40108694124E+02 -0.42007200167E+02  0.10005205837E+03  0.20811709828E+03  0.17300000000E+03 0. -1.
       -6    1    1    2    0  503  0.12853629149E+03  0.16414837748E+03 -0.26529013523E+03  0.37917558454E+03  0.17300000000E+03 0. -1.
        6    1    1    2  502    0  0.79085114536E+02 -0.18110317488E+03 -0.45307354730E+03  0.52369595621E+03  0.17300000000E+03 0. -1.
       -6    1    1    2    0  504 -0.24773010015E+03  0.58961997572E+02  0.40247370545E+03  0.50671570259E+03  0.17300000000E+03 0. -1.
</event>
<event>
 6   0  0.4500850E-05  0.5577234E+03  0.7546771E-02  0.1007890E+00
       -1   -1    0    0    0  501  0.00000000000E+00  0.00000000000E+00  0.80031874139E+03  0.80031874139E+03  0.00000000000E+00 0. -1.
        1   -1    0    0  503    0  0.00000000000E+00  0.00000000000E+00 -0.58263342748E+03  0.58263342748E+03  0.00000000000E+00 0.  1.
        6    1    1    2  502    0 -0.10372967174E+03 -0.20905460735E+03  0.15043210241E+03  0.32714292150E+03  0.17300000000E+03 0.  1.
       -6    1    1    2    0  501  0.93739059892E+02  0.54217333800E+02  0.44013050714E+03  0.48514986752E+03  0.17300000000E+03 0. -1.
        6    1    1    2  503    0  0.94937070173E+02  0.24296304130E+02 -0.15982082860E+03  0.25509812807E+03  0.17300000000E+03 0. -1.
       -6    1    1    2    0  502 -0.84946458325E+02  0.13054096942E+03 -0.21305646704E+03  0.31556125178E+03  0.17300000000E+03 0.  1.
</event>
<event>
 6   0  0.4500850E-05  0.3175619E+03  0.7546771E-02  0.1085192E+00
       21   -1    0    0  501  503  0.00000000000E+00  0.00000000000E+00  0.27426842985E+03  0.27426842985E+03  0.00000000000E+00 0. -1.
       21   -1    0    0  502  504  0.00000000000E+00  0.00000000000E+00 -0.13444843870E+04  0.13444843870E+04  0.00000000000E+00 0.  1.
        6    1    1    2  501    0 -0.14462670372E+03  0.36638150110E+02 -0.43205752152E+03  0.48873504005E+03  0.17300000000E+03 0. -1.
       -6    1    1    2    0  504  0.12422906566E+03 -0.69234394118E+02 -0.40675435638E+03  0.46433217476E+03  0.17300000000E+03 0.  1.
        6    1    1    2  502    0  0.12100654103E+03  0.17224758681E+02 -0.36680154183E+03  0.42357011978E+03  0.17300000000E+03 0.  1.
       -6    1    1    2    0  503 -0.10060890296E+03  0.15371485327E+02  0.13539746253E+03  0.24211548231E+03  0.17300000000E+03 0. -1.
</event>
<event>
 6   0  0.4500850E-05  0.1960911E+03  0.7546771E-02  0.1153211E+00
       21   -1    0    0  504  503  0.00000000000E+00  0.00000000000E+00  0.88166919395E+03  0.88166919395E+03  0.00000000000E+00 0.  1.
       21   -1    0    0  502  504  0.00000000000E+00  0.00000000000E+00 -0.67084806143E+03  0.67084806143E+03  0.00000000000E+00 0.  1.
        6    1    1    2  501    0 -0.93357601535E+02 -0.85609557106E+02 -0.11085653613E+01  0.21441750616E+03  0.17300000000E+03 0.  1.
       -6    1    1    2    0  501 -0.75523037615E+02  0.15005437028E+02 -0.20065487275E+03  0.27589902194E+03  0.17300000000E+03 0.  1.
        6    1    1    2  502    0  0.14941051137E+03 -0.29953284631E+01 -0.27008619947E+03  0.35384746438E+03  0.17300000000E+03 0.  1.
       -6    1    1    2    0  503  0.19470127775E+02  0.73599448541E+02  0.68267077010E+03  0.70835326289E+03  0.17300000000E+03 0.  1.
</event>
<event>
 6   0  0.4500850E-05  0.1935532E+03  0.7546771E-02  0.1155389E+00
       21   -1    0    0  502  503  0.00000000000E+00  0.00000000000E+00  0.61891103582E+03  0.61891103582E+03  0.00000000000E+00 0.  1.
       21   -1    0    0  501  504  0.00000000000E+00  0.00000000000E+00 -0.15514854026E+04  0.15514854026E+04  0.00000000000E+00 0.  1.
        6    1    1    2  501    0 -0.41514027680E+02  0.14670358295E+03 -0.10261989356E+04  0.10517882920E+04  0.17300000000E+03 0.  1.
       -6    1    1    2    0  503  0.76689184641E+02 -0.78743246410E+02 -0.28449032583E+03  0.35063581589E+03  0.17300000000E+03 0.  1.
        6    1    1    2  502    0 -0.21617528344E+02 -0.32678389135E+02  0.51465373680E+03  0.54436445829E+03  0.17300000000E+03 0.  1.
       -6    1    1    2    0  504 -0.13557628617E+02 -0.35281947406E+02 -0.13653884211E+03  0.22360787220E+03  0.17300000000E+03 0.  1.
</event>
<event>
 6   0  0.4500850E-05  0.4315454E+03  0.7546771E-02  0.1056833E+00
       21   -1    0    0  504  503  0.00000000000E+00  0.00000000000E+00  0.34179469685E+03  0.34179469685E+03  0.00000000000E+00 0. -1.
       21   -1    0    0  502  504  0.00000000000E+00  0.00000000000E+00 -0.10296288612E+04  0.10296288612E+04  0.00000000000E+00 0. -1.
        6    1    1    2  501    0 -0.17358007385E+02 -0.46719886288E+02 -0.10453092627E+02  0.18033944477E+03  0.17300000000E+03 0.  1.
       -6    1    1    2    0  503 -0.64960170286E+02 -0.16942096193E+03  0.11493087543E+03  0.27579229901E+03  0.17300000000E+03 0. -1.
        6    1    1    2  502    0 -0.49116716736E+02  0.12591516049E+03 -0.32650964549E+03  0.39345219290E+03  0.17300000000E+03 0. -1.
       -6    1    1    2    0  501  0.13143489441E+03  0.90225687734E+02 -0.46580230170E+03  0.52183962140E+03  0.17300000000E+03 0.  1.
</event>
<event>
 6   0  0.4500850E-05  0.2340062E+03  0.7546771E-02  0.1131150E+00
       21   -1    0    0  504  503  0.00000000000E+00  0.00000000000E+00  0.20079025474E+03  0.20079025474E+03  0.00000000000E+00 0. -1.
       21   -1    0    0  501  504  0.00000000000E+00  0.00000000000E+00 -0.11891507074E+04  0.11891507074E+04  0.00000000000E+00 0. -1.
        6    1    1    2  501    0 -0.53636337124E+02  0.19072859399E+03 -0.32581233154E+03  0.41873252633E+03  0.17300000000E+03 0. -1.
       -6    1    1    2    0  503 -0.37524639201E+02  0.41129806433E+02 -0.40704592297E+02  0.18624076718E+03  0.17300000000E+03 0.  1.
        6    1    1    2  502    0  0.13583924141E+03 -0.54027956821E+02 -0.31151932743E+03  0.38515530762E+03  0.17300000000E+03 0. -1.
       -6    1    1    2    0  502 -0.44678265083E+02 -0.17783044360E+03 -0.31032420137E+03  0.39981236099E+03  0.17300000000E+03 0. -1.
</event>
<event>
 6   0  0.4500850E-05  0.2164317E+03  0.7546771E-02  0.1138094E+00
       21   -1    0    0  502  503  0.00000000000E+00  0.00000000000E+00  0.65148404293E+03  0.65148404293E+03  0.00000000000E+00 0.  1.
       21   -1    0    0  503  504  0.00000000000E+00  0.00000000000E+00 -0.21427837035E+04  0.21427837035E+04  0.00000000000E+00 0. -1.
        6    1    1    2  501    0  0.12031742547E+03  0.83702575983E+02 -0.54437195810E+03  0.58970520844E+03  0.17300000000E+03 0.  1.
       -6    1    1    2    0  501 -0.70249623740E+02 -0.10622359302E+03 -0.74088856250E+02  0.22723692475E+03  0.17300000000E+03 0.  1.
        6    1    1    2  502    0 -0.78620979002E+02 -0.43048272609E+02  0.52863794256E+03  0.56340170964E+03  0.17300000000E+03 0.  1.
       -6    1    1    2    0  504  0.28553177268E+02  0.65569289642E+02 -0.14014767888E+04  0.14139239036E+04  0.17300000000E+03 0. -1.
</event>
<event>
 6   0  0.4500850E-05  0.3251205E+03  0.7546771E-02  0.1084881E+00
       21   -1    0    0  504  503  0.00000000000E+00  0.00000000000E+00  0.22275436041E+03  0.22275436041E+03  0.00000000000E+00 0. -1.
       21   -1    0    0  502  504  0.00000000000E+00  0.00000000000E+00 -0.15642246615E+04  0.15642246615E+04  0.00000000000E+00 0. -1.
        6    1    1    2  501    0 -0.12071227058E+03  0.17002759900E+03 -0.10176597352E+04  0.10531102379E+04  0.17300000000E+03 0. -1.
       -6    1    1    2    0  503  0.76209849906E+02 -0.30411777400E+02  0.51263459982E+02  0.19821644674E+03  0.17300000000E+03 0. -1.
        6    1    1    2  502    0  0.26390115490E+02 -0.10250812966E+03 -0.22521326011E+03  0.30307485440E+03  0.17300000000E+03 0. -1.
       -6    1    1    2    0  501  0.18112305180E+02 -0.37107691937E+02 -0.14986076582E+03  0.23257748286E+03  0.17300000000E+03 0. -1.
</event>
<event>
 6   0  0.4500850E-05  0.3674127E+03  0.7546771E-02  0.1065265E+00
       21   -1    0    0  502  503  0.00000000000E+00  0.00000000000E+00  0.18262597420E+04  0.18262597420E+04  0.00000000000E+00 0.  1.
       21   -1    0    0  501  504  0.00000000000E+00  0.00000000000E+00 -0.43716046310E+03  0.43716046310E+03  0.00000000000E+00 0. -1.
        6    1    1    2  501    0 -0.16810355619E+03  0.34343236825E+02  0.60400698141E+03  0.65130000546E+03  0.17300000000E+03 0.  1.
       -6    1    1    2    0  504 -0.52639022404E+02  0.55004571880E+02 -0.56392206532E+02  0.19724464648E+03  0.17300000000E+03 0. -1.
        6    1    1    2  502    0 -0.17171253205E+03  0.40333960069E+03  0.24910872889E+03  0.53305927058E+03  0.17300000000E+03 0.  1.
       -6    1    1    2    0  503  0.39245511065E+03 -0.49268740939E+03  0.59237577510E+03  0.88181628255E+03  0.17300000000E+03 0.  1.
</event>
<event>
 6   0  0.4500850E-05  0.3550039E+03  0.7546771E-02  0.1064590E+00
       21   -1    0    0  504  503  0.00000000000E+00  0.00000000000E+00  0.10737138521E+04  0.10737138521E+04  0.00000000000E+00 0.  1.
       21   -1    0    0  502  504  0.00000000000E+00  0.00000000000E+00 -0.12114451709E+04  0.12114451709E+04  0.00000000000E+00 0.  1.
        6    1    1    2  501    0 -0.20488436486E+03  0.16321777044E+03  0.16244107244E+03  0.35345968025E+03  0.17300000000E+03 0.  1.
       -6    1    1    2    0  503  0.54070995417E+02  0.23362883166E+03  0.37242143562E+03  0.47553425664E+03  0.17300000000E+03 0.  1.
        6    1    1    2  502    0 -0.19618945999E+03  0.46585176737E+02 -0.80902009416E+03  0.85152979728E+03  0.17300000000E+03 0.  1.
       -6    1    1    2    0  501  0.34700282943E+03 -0.44343177884E+03  0.13642626726E+03  0.60463528884E+03  0.17300000000E+03 0.  1.
</event>
<event>
 6   0  0.4500850E-05  0.3483086E+03  0.7546771E-02  0.1075793E+00
       21   -1    0    0  501  503  0.00000000000E+00  0.00000000000E+00  0.20890898970E+04  0.20890898970E+04  0.00000000000E+00 0. -1.
       21   -1    0    0  502  504  0.00000000000E+00  0.00000000000E+00 -0.77411465434E+03  0.77411465434E+03  0.00000000000E+00 0. -1.
        6    1    1    2  501    0 -0.28561909783E+03 -0.62213348299E+02  0.16505979402E+04  0.16851858443E+04  0.17300000000E+03 0. -1.
       -6    1    1    2    0  503 -0.17762843134E+03 -0.62163415669E+02 -0.30324508058E+03  0.39661408039E+03  0.17300000000E+03 0. -1.
        6    1    1    2  502    0  0.52880835698E+02 -0.16844027664E+03  0.36327481837E+01  0.24720579774E+03  0.17300000000E+03 0.  1.
       -6    1    1    2    0  504  0.41036669347E+03  0.29281704061E+03 -0.36010365128E+02  0.53419882888E+03  0.17300000000E+03 0. -1.
</event>
<event>
 6   0  0.4500850E-05  0.4357430E+03  0.7546771E-02  0.1057848E+00
       21   -1    0    0  504  503  0.00000000000E+00  0.00000000000E+00  0.16134173000E+04  0.16134173000E+04  0.00000000000E+00 0.  1.
       21   -1    0    0  501  504  0.00000000000E+00  0.00000000000E+00 -0.51449669530E+03  0.51449669530E+03  0.00000000000E+00 0. -1.
        6    1    1    2  501    0 -0.17065120241E+02  0.11283570024E+03 -0.37879047116E+03  0.43178042408E+03  0.17300000000E+03 0. -1.
       -6    1    1    2    0  502  0.12836344218E+03 -0.29019665147E+03  0.39022336199E+03  0.53187831508E+03  0.17300000000E+03 0. -1.
        6    1    1    2  502    0 -0.35244794897E+02  0.13080679564E+03  0.62420044446E+03  0.66174603000E+03  0.17300000000E+03 0.  1.
       -6    1    1    2    0  503 -0.76053527039E+02  0.46554155589E+02  0.46328726942E+03  0.50250922617E+03  0.17300000000E+03 0.  1.
</event>
<event>
 6   0  0.4500850E-05  0.5456572E+03  0.7546771E-02  0.1035558E+00
       21   -1    0    0  504  503  0.00000000000E+00  0.00000000000E+00  0.16631499082E+04  0.16631499082E+04  0.00000000000E+00 0. -1.
       21   -1    0    0  501  504  0.00000000000E+00  0.00000000000E+00 -0.89496920369E+03  0.89496920369E+03  0.00000000000E+00 0.  1.
        6    1    1    2  501    0  0.23178606529E+03  0.48752791542E+03  0.13024603360E+03  0.58163672309E+03  0.17300000000E+03 0.  1.
       -6    1    1    2    0  502 -0.49887528533E+03  0.20473294747E+02  0.41720419321E+03  0.67326372615E+03  0.17300000000E+03 0. -1.
        6    1    1    2  502    0  0.25348472444E+03 -0.59186112964E+03 -0.31244454607E+03  0.73627759485E+03  0.17300000000E+03 0. -1.
       -6    1    1    2    0  503  0.13604495607E+02  0.83859919474E+02  0.53317502378E+03  0.56694106782E+03  0.17300000000E+03 0. -1.
</event>
<event>
 6   0  0.4500850E-05  0.2954306E+03  0.7546771E-02  0.1100045E+00
       21   -1    0    0  501  503  0.00000000000E+00  0.00000000000E+00  0.16672908608E+04  0.16672908608E+04  0.00000000000E+00 0.  1.
       21   -1    0    0  502  504  0.00000000000E+00  0.00000000000E+00 -0.80355360237E+03  0.80355360237E+03  0.00000000000E+00 0.  1.
        6    1    1    2  501    0 -0.41408689528E+02 -0.11679750343E+03  0.52021774500E+03  0.56206035138E+03  0.17300000000E+03 0. -1.
       -6    1    1    2    0  504 -0.11650352816E+03  0.18688057451E+03  0.10415250925E+03  0.29878782837E+03  0.17300000000E+03 0. -1.
        6    1    1    2  502    0 -0.14324757108E+03  0.18498275142E+03 -0.59980256357E+03  0.66665628341E+03  0.17300000000E+03 0.  1.
       -6    1    1    2    0  503  0.30115978876E+03 -0.25506582249E+03  0.83916956773E+03  0.94333999999E+03  0.17300000000E+03 0.  1.
</event>
<event>
 6   0  0.4500850E-05  0.2302767E+03  0.7546771E-02  0.1128874E+00
       21   -1    0    0  501  503  0.00000000000E+00  0.00000000000E+00  0.29025594422E+03  0.29025594422E+03  0.00000000000E+00 0. -1.
       21   -1    0    0  502  504  0.00000000000E+00  0.00000000000E+00 -0.10696997632E+04  0.10696997632E+04  0.00000000000E+00 0.  1.
        6    1    1    2  501    0  0.21143284863E+03 -0.15672356223E+03 -0.54050658622E+03  0.62557373202E+03  0.17300000000E+03 0.  1.
       -6    1    1    2    0  503 -0.15872393988E+03  0.91485066511E+02 -0.34682313446E+02  0.25435146815E+03  0.17300000000E+03 0.  1.
        6    1    1    2  502    0 -0.23521283434E+02  0.63681096428E+02  0.29066457380E+02  0.18810207804E+03  0.17300000000E+03 0.  1.
       -6    1    1    2    0  504 -0.29187625320E+02  0.15573992930E+01 -0.23332137670E+03  0.29192842923E+03  0.17300000000E+03 0.  1.
</event>
<event>
 6   0  0.4500850E-05  0.8401514E+03  0.7546771E-02  0.9660812E-01
       21   -1    0    0  502  503  0.00000000000E+00  0.00000000000E+00  0.11301358977E+04  0.11301358977E+04  0.00000000000E+00 0. -1.
       21   -1    0    0  501  504  0.00000000000E+00  0.00000000000E+00 -0.17138973740E+04  0.17138973740E+04  0.00000000000E+00 0.  1.
        6    1    1    2  501    0  0.42284418859E+03  0.11555490021E+03  0.71100317703E+02  0.47658619154E+03  0.17300000000E+03 0. -1.
       -6    1    1    2    0  504  0.15877137202E+03 -0.73321715505E+02  0.19950144843E+03  0.31672424988E+03  0.17300000000E+03 0. -1.
        6    1    1    2  502    0  0.27650594825E+03 -0.21079031332E+02  0.40276029922E+03  0.51869521263E+03  0.17300000000E+03 0. -1.
       -6    1    1    2    0  503 -0.85812150886E+03 -0.21154153376E+02 -0.12571235417E+04  0.15320276176E+04  0.17300000000E+03 0.  1.
</event>
<event>
 6   0  0.4500850E-05  0.8053248E+03  0.7546771E-02  0.9572202E-01
        4   -1    0    0  503    0  0.00000000000E+00  0.00000000000E+00  0.52558988150E+03  0.52558988150E+03  0.00000000000E+00 0. -1.
       -4   -1    0    0    0  501  0.00000000000E+00  0.00000000000E+00 -0.11606272980E+04  0.11606272980E+04  0.00000000000E+00 0.  1.
        6    1    1    2  502    0  0.33154194998E+03  0.16481505469E+03 -0.38496044256E+03  0.56143353051E+03  0.17300000000E+03 0.  1.
       -6    1    1    2    0  501  0.24291587042E+03  0.15280835630E+03 -0.93032503565E+01  0.33522241024E+03  0.17300000000E+03 0.  1.
        6    1    1    2  503    0 -0.39054366746E+03 -0.21708609248E+03 -0.17344586548E+03  0.50957158084E+03  0.17300000000E+03 0. -1.
       -6    1    1    2    0  502 -0.18391415294E+03 -0.10053731850E+03 -0.67327858104E+02  0.27998965792E+03  0.17300000000E+03 0. -1.
</event>
<event>
 6   0  0.4500850E-05  0.3007383E+03  0.7546771E-02  0.1090356E+00
       21   -1    0    0  501  503  0.00000000000E+00  0.00000000000E+00  0.41541923862E+03  0.41541923862E+03  0.00000000000E+00 0. -1.
       21   -1    0    0  502  504  0.00000000000E+00  0.00000000000E+00 -0.16344321896E+04  0.16344321896E+04  0.00000000000E+00 0.  1.
        6    1    1    2  501    0  0.73213368976E+02  0.76399971174E+02 -0.70557983379E+03  0.73414511838E+03  0.17300000000E+03 0.  1.
       -6    1    1    2    0  504  0.49858198594E+01 -0.10990754292E+03 -0.36596939706E+03  0.41948435724E+03  0.17300000000E+03 0. -1.
        6    1    1    2  502    0 -0.47454544464E+02 -0.11926172234E+03 -0.45914936929E+03  0.50717101211E+03  0.17300000000E+03 0.  1.
       -6    1    1    2    0  503 -0.30744644371E+02  0.15276929409E+03  0.31168564917E+03  0.38905094046E+03  0.17300000000E+03 0. -1.
</event>
<event>
 6   0  0.4500850E-05  0.4732568E+03  0.7546771E-02  0.1044303E+00
       21   -1    0    0  501  503  0.00000000000E+00  0.00000000000E+00  0.45127025309E+03  0.45127025309E+03  0.00000000000E+00 0. -1.
       21   -1    0    0  502  504  0.00000000000E+00  0.00000000000E+00 -0.21175842011E+04  0.21175842011E+04  0.00000000000E+00 0. -1.
        6    1    1    2  501    0  0.11398759400E+03 -0.12607971137E+03  0.13887164426E+03  0.27947021091E+03  0.17300000000E+03 0. -1.
       -6    1    1    2    0  503  0.11134074331E+03  0.48579837169E+02 -0.12595100474E+03  0.24606791196E+03  0.17300000000E+03 0.  1.
        6    1    1    2  502    0 -0.27612288787E+03  0.27002582501E+03 -0.17245210037E+04  0.17756856388E+04  0.17300000000E+03 0. -1.
       -6    1    1    2    0  504  0.50794550558E+02 -0.19252595081E+03  0.45286416217E+02  0.26763069255E+03  0.17300000000E+03 0.  1.
</event>
<event>
 6   0  0.4500850E-05  0.3286970E+03  0.7546771E-02  0.1080433E+00
       21   -1    0    0  504  503  0.00000000000E+00  0.00000000000E+00  0.28619904139E+03  0.28619904139E+03  0.00000000000E+00 0. -1.
       21   -1    0    0  501  504  0.00000000000E+00  0.00000000000E+00 -0.89248129767E+03  0.89248129767E+03  0.00000000000E+00 0.  1.
        6    1    1    2  501    0 -0.10300100345E+03 -0.62624162115E+02 -0.40881386385E+03  0.45998779078E+03  0.17300000000E+03 0.  1.
       -6    1    1    2    0  503  0.22746389489E+03 -0.40437353773E+02 -0.60057697363E+01  0.28868680664E+03  0.17300000000E+03 0. -1.
        6    1    1    2  502    0 -0.46116698186E+02  0.31793966827E+02 -0.81479496892E+02  0.19926242644E+03  0.17300000000E+03 0. -1.
       -6    1    1    2    0  502 -0.78346193249E+02  0.71267549061E+02 -0.10998312580E+03  0.23074331520E+03  0.17300000000E+03 0. -1.
</event>
<event>
 6   0  0.4500850E-05  0.2543401E+03  0.7546771E-02  0.1112191E+00
       21   -1    0    0  501  503  0.00000000000E+00  0.00000000000E+00  0.15071781660E+04  0.15071781660E+04  0.00000000000E+00 0. -1.
       21   -1    0    0  503  504  0.00000000000E+00  0.00000000000E+00 -0.77427334052E+03  0.77427334052E+03  0.00000000000E+00 0. -1.
        6    1    1    2  501    0  0.10424808169E+03  0.70212142816E+02  0.90395594110E+03  0.92890405908E+03  0.17300000000E+03 0. -1.
       -6    1    1    2    0  502 -0.28488242296E+03 -0.23743736446E+03  0.38428525940E+03  0.56137212039E+03  0.17300000000E+03 0. -1.
        6    1    1    2  502    0  0.15692753387E+03  0.54722188150E+02 -0.50331116204E+02  0.24511831841E+03  0.17300000000E+03 0.  1.
       -6    1    1    2    0  504  0.23706807399E+02  0.11250303350E+03 -0.50500525881E+03  0.54605700864E+03  0.17300000000E+03 0. -1.
</event>
<event>
 6   0  0.4500850E-05  0.2438143E+03  0.7546771E-02  0.1130785E+00
       21   -1    0    0  502  503  0.00000000000E+00  0.00000000000E+00  0.23386576240E+04  0.23386576240E+04  0.00000000000E+00 0.  1.
       21   -1    0    0  501  504  0.00000000000E+00  0.00000000000E+00 -0.28408511053E+03  0.28408511053E+03  0.00000000000E+00 0. -1.
        6    1    1    2  501    0  0.55231200616E+02 -0.27919994511E+02 -0.13183959944E+03  0.22614307771E+03  0.17300000000E+03 0. -1.
       -6    1    1    2    0  503 -0.12980192105E+02  0.17322313161E+02  0.19959748855E+02  0.17548771893E+03  0.17300000000E+03 0.  1.
        6    1    1    2  502    0 -0.16847221704E+03 -0.82308477108E+02  0.12073957406E+04  0.12340547183E+04  0.17300000000E+03 0.  1.
       -6    1    1    2    0  504  0.12622120853E+03  0.92906158458E+02  0.95905662350E+03  0.98705721964E+03  0.17300000000E+03 0. -1.
</event>
<event>
 6   0  0.4500850E-05  0.2255016E+03  0.7546771E-02  0.1134140E+00
       21   -1    0    0  504  503  0.00000000000E+00  0.00000000000E+00  0.41327823733E+03  0.41327823733E+03  0.00000000000E+00 0. -1.
       21   -1    0    0  501  504  0.00000000000E+00  0.00000000000E+00 -0.58984858121E+03  0.58984858121E+03  0.00000000000E+00 0. -1.
        6    1    1    2  501    0  0.45169310657E+02  0.15361454262E+03 -0.90978602287E+02  0.25267330766E+03  0.17300000000E+03 0. -1.
       -6    1    1    2    0  503 -0.74602263221E+02  0.75620090368E+02  0.29751783837E+02  0.20517812843E+03  0.17300000000E+03 0.  1.
        6    1    1    2  502    0  0.51942384844E+02 -0.94700685933E+02  0.10866041538E+03  0.23108941371E+03  0.17300000000E+03 0.  1.
       -6    1    1    2    0  502 -0.22509432279E+02 -0.13453394705E+03 -0.22400394081E+03  0.31418596873E+03  0.17300000000E+03 0. -1.
</event>
<event>
 6   0  0.4500850E-05  0.5215706E+03  0.7546771E-02  0.1043575E+00
       21   -1    0    0  502  503  0.00000000000E+00  0.00000000000E+00  0.69678360691E+03  0.69678360691E+03  0.00000000000E+00 0.  1.
       21   -1    0    0  503  504  0.00000000000E+00  0.00000000000E+00 -0.15127691233E+04  0.15127691233E+04  0.00000000000E+00 0. -1.
        6    1    1    2  501    0  0.30446356679E+03 -0.32133880490E+03 -0.51610093263E+03  0.70160235440E+03  0.17300000000E+03 0.  1.
       -6    1    1    2    0  504 -0.43594081769E+03  0.33568094984E+03 -0.70171424962E+03  0.90832702521E+03  0.17300000000E+03 0. -1.
        6    1    1    2  502    0  0.14422560366E+03  0.39045776586E+02  0.10466295137E+03  0.25141386360E+03  0.17300000000E+03 0.  1.
       -6    1    1    2    0  501 -0.12748352760E+02 -0.53387921528E+02  0.29716671447E+03  0.34820948702E+03  0.17300000000E+03 0.  1.
</event>
<event>
 6   0  0.4500850E-05  0.1859597E+03  0.7546771E-02  0.1162523E+00
       21   -1    0    0  501  503  0.00000000000E+00  0.00000000000E+00  0.82080612478E+03  0.82080612478E+03  0.00000000000E+00 0. -1.
       21   -1    0    0  502  504  0.00000000000E+00  0.00000000000E+00 -0.34967656171E+03  0.34967656171E+03  0.00000000000E+00 0. -1.
        6    1    1    2  501    0  0.35429542429E+00  0.36176028269E+02 -0.14284245860E+03  0.22724831908E+03  0.17300000000E+03 0. -1.
       -6    1    1    2    0  504  0.36634050992E+02 -0.11039202132E+03 -0.15408152835E+02  0.20903316301E+03  0.17300000000E+03 0.  1.
        6    1    1    2  502    0 -0.25869316086E+02 -0.84707129450E+01  0.21369631939E+03  0.27628986846E+03  0.17300000000E+03 0.  1.
       -6    1    1    2    0  503 -0.11119030331E+02  0.82686705999E+02  0.41568385511E+03  0.45791133594E+03  0.17300000000E+03 0. -1.
</event>
<event>
 6   0  0.4500850E-05  0.6349413E+03  0.7546771E-02  0.9835453E-01
       -2   -1    0    0    0  501  0.00000000000E+00  0.00000000000E+00  0.10305488885E+03  0.10305488885E+03  0.00000000000E+00 0.  1.
        2   -1    0    0  503    0  0.00000000000E+00  0.00000000000E+00 -0.45104239423E+04  0.45104239423E+04  0.00000000000E+00 0. -1.
        6    1    1    2  502    0  0.50624814105E+02  0.46100269902E+03 -0.23332996762E+04  0.23852259305E+04  0.17300000000E+03 0. -1.
       -6    1    1    2    0  501  0.10217983074E+03 -0.84717383149E+02 -0.35885585583E+03  0.41990984519E+03  0.17300000000E+03 0.  1.
        6    1    1    2  503    0 -0.98733979298E+02 -0.13976564924E+03 -0.48583916458E+03  0.54337052664E+03  0.17300000000E+03 0. -1.
       -6    1    1    2    0  502 -0.54070665546E+02 -0.23651966663E+03 -0.12293743568E+04  0.12649725289E+04  0.17300000000E+03 0.  1.
</event>
<event>
 6   0  0.4500850E-05  0.2418962E+03  0.7546771E-02  0.1118687E+00
       21   -1    0    0  502  503  0.00000000000E+00  0.00000000000E+00  0.21260652849E+04  0.21260652849E+04  0.00000000000E+00 0. -1.
       21   -1    0    0  501  504  0.00000000000E+00  0.00000000000E+00 -0.32539010190E+03  0.32539010190E+03  0.00000000000E+00 0.  1.
        6    1    1    2  501    0  0.47200153289E+02 -0.11307286103E+03 -0.19425121320E+03  0.28753410268E+03  0.17300000000E+03 0.  1.
       -6    1    1    2    0  504  0.27527030989E+02  0.13624002568E+03  0.93951278951E+03  0.96536644011E+03  0.17300000000E+03 0. -1.
        6    1    1    2  502    0  0.15591424697E+03  0.60112333170E+02  0.65785061157E+03  0.70044212619E+03  0.17300000000E+03 0.  1.
       -6    1    1    2    0  503 -0.23064143125E+03 -0.83279497816E+02  0.39756299512E+03  0.49811271782E+03  0.17300000000E+03 0. -1.
</event>
<event>
 6   0  0.4500850E-05  0.2384009E+03  0.7546771E-02  0.1124078E+00
       21   -1    0    0  501  503  0.00000000000E+00  0.00000000000E+00  0.13713938896E+04  0.13713938896E+04  0.00000000000E+00 0. -1.
       21   -1    0    0  502  504  0.00000000000E+00  0.00000000000E+00 -0.14952447579E+04  0.14952447579E+04  0.00000000000E+00 0.  1.
        6    1    1    2  501    0  0.93675904524E+02 -0.68020189329E+02  0.88255259276E+03  0.90676898946E+03  0.17300000000E+03 0. -1.
       -6    1    1    2    0  504 -0.17125533869E+03  0.26583074348E+03  0.33244800553E+03  0.49035196705E+03  0.17300000000E+03 0. -1.
        6    1    1    2  502    0 -0.63397042454E+01 -0.85506764848E+02 -0.11807310859E+04  0.11964140153E+04  0.17300000000E+03 0.  1.
       -6    1    1    2    0  503  0.83919138414E+02 -0.11230378930E+03 -0.15812038067E+03  0.27310367567E+03  0.17300000000E+03 0. -1.
</event>
<event>
 6   0  0.4500850E-05  0.5400101E+03  0.7546771E-02  0.1003844E+00
        1   -1    0    0  503    0  0.00000000000E+00  0.00000000000E+00  0.36189118682E+03  0.36189118682E+03  0.00000000000E+00 0. -1.
       -1   -1    0    0    0  501  0.00000000000E+00  0.00000000000E+00 -0.89014016991E+03  0.89014016991E+03  0.00000000000E+00 0.  1.
        6    1    1    2  502    0 -0.16052853857E+03 -0.13781840281E+02 -0.89784403926E+02  0.25288256169E+03  0.17300000000E+03 0. -1.
       -6    1    1    2    0  502  0.47331569947E+02  0.66586833126E+02 -0.18049828785E+03  0.26302607433E+03  0.17300000000E+03 0. -1.
        6    1    1    2  503    0  0.94896622202E+02 -0.28632679162E+03 -0.27660547756E+03  0.44432869671E+03  0.17300000000E+03 0.  1.
       -6    1    1    2    0  501  0.18300346420E+02  0.23352179877E+03  0.18639186243E+02  0.29179402400E+03  0.17300000000E+03 0. -1.
</event>
<event>
 6   0  0.4500850E-05  0.4472343E+03  0.7546771E-02  0.1060822E+00
       21   -1    0    0  501  503  0.00000000000E+00  0.00000000000E+00  0.68145708735E+03  0.68145708735E+03  0.00000000000E+00 0.  1.
       21   -1    0    0  503  504  0.00000000000E+00  0.00000000000E+00 -0.72027274874E+03  0.72027274874E+03  0.00000000000E+00 0.  1.
        6    1    1    2  501    0 -0.10334434655E+02  0.32624624045E+02  0.45512098112E+03  0.48809350958E+03  0.17300000000E+03 0.  1.
       -6    1    1    2    0  504  0.13009433939E+03 -0.22797432591E+02 -0.25698419959E+03  0.33677015739E+03  0.17300000000E+03 0. -1.
        6    1    1    2  502    0  0.11202619744E+03 -0.88181330629E+02 -0.12716714883E+03  0.25773300085E+03  0.17300000000E+03 0.  1.
       -6    1    1    2    0  502 -0.23178610218E+03  0.78354139175E+02 -0.10978529409E+03  0.31913316827E+03  0.17300000000E+03 0.  1.
</event>
<event>
 6   0  0.4500850E-05  0.1982033E+03  0.7546771E-02  0.1154416E+00
       21   -1    0    0  501  503  0.00000000000E+00  0.00000000000E+00  0.34640335970E+03  0.34640335970E+03  0.00000000000E+00 0.  1.
       21   -1    0    0  503  504  0.00000000000E+00  0.00000000000E+00 -0.97531245954E+03  0.97531245954E+03  0.00000000000E+00 0.  1.
        6    1    1    2  501    0 -0.48632671400E+02 -0.44718897126E+02 -0.20470620737E+03  0.27604084448E+03  0.17300000000E+03 0. -1.
       -6    1    1    2    0  502  0.82415612330E+02  0.83474800562E+02 -0.37411421698E+03  0.42854500678E+03  0.17300000000E+03 0.  1.
        6    1    1    2  502    0 -0.93981807671E+02 -0.21241705033E+02  0.21637167326E+03  0.29330784373E+03  0.17300000000E+03 0.  1.
       -6    1    1    2    0  504  0.60198866741E+02 -0.17514198403E+02 -0.26646034874E+03  0.32382212425E+03  0.17300000000E+03 0.  1.
</event>
<event>
 6   0  0.4500850E-05  0.2171335E+03  0.7546771E-02  0.1141436E+00
       21   -1    0    0  504  503  0.00000000000E+00  0.00000000000E+00  0.58018917751E+03  0.58018917751E+03  0.00000000000E+00 0. -1.
       21   -1    0    0  502  504  0.00000000000E+00  0.00000000000E+00 -0.44476200699E+03  0.44476200699E+03  0.00000000000E+00 0.  1.
        6    1    1    2  501    0  0.14421805066E+03 -0.14868523007E+02  0.15062183206E+02  0.22622066323E+03  0.17300000000E+03 0. -1.
       -6    1    1    2    0  503  0.34777371901E+02 -0.11858858507E+03  0.17141761090E+03  0.27310385466E+03  0.17300000000E+03 0.  1.
        6    1    1    2  502    0 -0.21421730538E+02  0.48582524044E+02 -0.17129978526E+03  0.24918219963E+03  0.17300000000E+03 0.  1.
       -6    1    1    2    0  501 -0.15757369202E+03  0.84874584034E+02  0.12024716167E+03  0.27644446698E+03  0.17300000000E+03 0. -1.
</event>
<event>
 6   0  0.4500850E-05  0.2681701E+03  0.7546771E-02  0.1104157E+00
       21   -1    0    0  501  503  0.00000000000E+00  0.00000000000E+00  0.24360690896E+04  0.24360690896E+04  0.00000000000E+00 0.  1.
       21   -1    0    0  502  504  0.00000000000E+00  0.00000000000E+00 -0.46992711529E+03  0.46992711529E+03  0.00000000000E+00 0.  1.
        6    1    1    2  501    0  0.10920548990E+03 -0.25143237200E+03  0.16511661348E+03  0.36378094062E+03  0.17300000000E+03 0.  1.
       -6    1    1    2    0  504 -0.22738435544E+03 -0.47931668533E+02 -0.22453083973E+03  0.36652992775E+03  0.17300000000E+03 0.  1.
        6    1    1    2  502    0  0.52385739630E+00  0.18880539665E+03  0.18810873142E+04  0.18984378409E+04  0.17300000000E+03 0.  1.
       -6    1    1    2    0  503  0.11765500815E+03  0.11055864388E+03  0.14446888635E+03  0.27724749558E+03  0.17300000000E+03 0. -1.
</event>
<event>
 6   0  0.4500850E-05  0.2857605E+03  0.7546771E-02  0.1096216E+00
       21   -1    0    0  501  503  0.00000000000E+00  0.00000000000E+00  0.52665632237E+03  0.52665632237E+03  0.00000000000E+00 0.  1.
       21   -1    0    0  502  504  0.00000000000E+00  0.00000000000E+00 -0.14545684086E+04  0.14545684086E+04  0.00000000000E+00 0.  1.
        6    1    1    2  501    0  0.64757740496E+02  0.27959994112E+02  0.21548352360E+03  0.28519725659E+03  0.17300000000E+03 0.  1.
       -6    1    1    2    0  503 -0.69075502415E+01 -0.35228484160E+03 -0.68765419958E+03  0.79180150421E+03  0.17300000000E+03 0. -1.
        6    1    1    2  502    0 -0.11590531738E+03 -0.46359275988E+01 -0.48406620173E+03  0.52697687054E+03  0.17300000000E+03 0.  1.
       -6    1    1    2    0  504  0.58055127131E+02  0.32896077509E+03  0.28324791525E+02  0.37724909960E+03  0.17300000000E+03 0. -1.
</event>
<event>
 6   0  0.4500850E-05  0.4897115E+03  0.7546771E-02  0.1018461E+00
        1   -1    0    0  502    0  0.00000000000E+00  0.00000000000E+00  0.18424027321E+04  0.18424027321E+04  0.00000000000E+00 0. -1.
       -1   -1    0    0    0  501  0.00000000000E+00  0.00000000000E+00 -0.38586298377E+03  0.38586298377E+03  0.00000000000E+00 0.  1.
        6    1    1    2  502    0 -0.38262669384E+02  0.10619817703E+03  0.95560007055E+03  0.97767202041E+03  0.17300000000E+03 0.  1.
       -6    1    1    2    0  503 -0.16771577724E+03  0.25096146360E+02  0.68566297465E+03  0.72720087549E+03  0.17300000000E+03 0. -1.
        6    1    1    2  503    0  0.53903746291E+02  0.42923809446E+02 -0.11388905703E+02  0.18656573762E+03  0.17300000000E+03 0. -1.
       -6    1    1    2    0  501  0.15207470033E+03 -0.17421813284E+03 -0.17333439112E+03  0.33682708240E+03  0.17300000000E+03 0.  1.
</event>
<event>
 6   0  0.4500850E-05  0.2382426E+03  0.7546771E-02  0.1122124E+00
       21   -1    0    0  502  503  0.00000000000E+00  0.00000000000E+00  0.20537058453E+04  0.20537058453E+04  0.00000000000E+00 0.  1.
       21   -1    0    0  501  504  0.00000000000E+00  0.00000000000E+00 -0.27668894719E+03  0.27668894719E+03  0.00000000000E+00 0.  1.
        6    1    1    2  501    0  0.16470074530E+03 -0.62856277110E+02  0.92822548835E+03  0.96052527520E+03  0.17300000000E+03 0.  1.
       -6    1    1    2    0  504 -0.14599849073E+03  0.79888762285E+02 -0.44236098061E+02  0.24409753380E+03  0.17300000000E+03 0.  1.
        6    1    1    2  502    0 -0.68079844982E+02 -0.12991014763E+03  0.20457442755E+02  0.22772575330E+03  0.17300000000E+03 0.  1.
       -6    1    1    2    0  503  0.49377590414E+02  0.11287766246E+03  0.87257006506E+03  0.89804623019E+03  0.17300000000E+03 0.  1.
</event>
<event>
 6   0  0.4500850E-05  0.2566494E+03  0.7546771E-02  0.1113457E+00
       21   -1    0    0  501  503  0.00000000000E+00  0.00000000000E+00  0.59907055690E+03  0.59907055690E+03  0.00000000000E+00 0.  1.
       21   -1    0    0  502  504  0.00000000000E+00  0.00000000000E+00 -0.11837677344E+04  0.11837677344E+04  0.00000000000E+00 0. -1.
        6    1    1    2  501    0 -0.10569532331E+03  0.29191229776E+02  0.39398574681E+03  0.44404661687E+03  0.17300000000E+03 0.  1.
       -6    1    1    2    0  504 -0.35439958261E+02  0.52585994107E+02 -0.76067646978E+02  0.19934032290E+03  0.17300000000E+03 0. -1.
        6    1    1    2  502    0  0.75904972917E+02  0.22381870870E+03 -0.61386623936E+03  0.68015964237E+03  0.17300000000E+03 0. -1.
       -6    1    1    2    0  503  0.65230308659E+02 -0.30559593258E+03 -0.28874903794E+03  0.45929170915E+03  0.17300000000E+03 0.  1.
</event>
<event>
 6   0  0.4500850E-05  0.2874785E+03  0.7546771E-02  0.1111127E+00
       21   -1    0    0  502  503  0.00000000000E+00  0.00000000000E+00  0.36882445730E+03  0.36882445730E+03  0.00000000000E+00 0.  1.
       21   -1    0    0  503  504  0.00000000000E+00  0.00000000000E+00 -0.97557933599E+03  0.97557933599E+03  0.00000000000E+00 0.  1.
        6    1    1    2  501    0  0.34123952466E+03  0.74015853275E+02 -0.21548286057E+03  0.44529161560E+03  0.17300000000E+03 0.  1.
       -6    1    1    2    0  501 -0.15619403862E+02 -0.42665318921E+01  0.72906430683E+02  0.18843172956E+03  0.17300000000E+03 0. -1.
        6    1    1    2  502    0 -0.13454143540E+03 -0.85612511864E+02 -0.81473653323E+02  0.24899368710E+03  0.17300000000E+03 0.  1.
       -6    1    1    2    0  504 -0.19107868539E+03  0.15863190481E+02 -0.38270479548E+03  0.46168676103E+03  0.17300000000E+03 0. -1.
</event>
<event>
 6   0  0.4500850E-05  0.4933153E+03  0.7546771E-02  0.1016414E+00
       21   -1    0    0  501  503  0.00000000000E+00  0.00000000000E+00  0.16776122743E+04  0.16776122743E+04  0.00000000000E+00 0. -1.
       21   -1    0    0  502  504  0.00000000000E+00  0.00000000000E+00 -0.21990281366E+03  0.21990281366E+03  0.00000000000E+00 0. -1.
        6    1    1    2  501    0 -0.16054934424E+03  0.51021778749E+02  0.13569228748E+03  0.27698503700E+03  0.17300000000E+03 0.  1.
       -6    1    1    2    0  503  0.17664996442E+02 -0.78174210247E+02  0.40248329609E+03  0.44535947601E+03  0.17300000000E+03 0. -1.
        6    1    1    2  502    0  0.21901182084E+03 -0.98503981070E+02  0.89993998269E+03  0.94735958558E+03  0.17300000000E+03 0. -1.
       -6    1    1    2    0  504 -0.76127473040E+02  0.12565641257E+03  0.19593894364E+02  0.22781098935E+03  0.17300000000E+03 0. -1.
</event>
<event>
 6   0  0.4500850E-05  0.3067661E+03  0.7546771E-02  0.1086355E+00
       21   -1    0    0  504  503  0.00000000000E+00  0.00000000000E+00  0.97851440246E+02  0.97851440246E+02  0.00000000000E+00 0. -1.
       21   -1    0    0  501  504  0.00000000000E+00  0.00000000000E+00 -0.21958281665E+04  0.21958281665E+04  0.00000000000E+00 0. -1.
        6    1    1    2  501    0 -0.10553771271E+02 -0.60325805818E+02 -0.41685934020E+03  0.45546821453E+03  0.17300000000E+03 0. -1.
       -6    1    1    2    0  502  0.49901152859E+02  0.10976839147E+03 -0.82200871222E+03  0.84862627098E+03  0.17300000000E+03 0.  1.
        6    1    1    2  502    0 -0.70398428055E+02  0.12600898948E+03 -0.27943998670E+03  0.35895669693E+03  0.17300000000E+03 0. -1.
       -6    1    1    2    0  503  0.31051046466E+02 -0.17545157513E+03 -0.57966868709E+03  0.63062842427E+03  0.17300000000E+03 0. -1.
</event>
<event>
 6   0  0.4500850E-05  0.5197242E+03  0.7546771E-02  0.1033333E+00
       21   -1    0    0  501  503  0.00000000000E+00  0.00000000000E+00  0.53926393164E+03  0.53926393164E+03  0.00000000000E+00 0.  1.
       21   -1    0    0  502  504  0.00000000000E+00  0.00000000000E+00 -0.70613346766E+03  0.70613346766E+03  0.00000000000E+00 0. -1.
        6    1    1    2  501    0 -0.14018200783E+03  0.16403619567E+03  0.84856334961E+02  0.28928958915E+03  0.17300000000E+03 0.  1.
       -6    1    1    2    0  503  0.17837010973E+03 -0.24247681410E+03 -0.23575950760E+03  0.41966944950E+03  0.17300000000E+03 0.  1.
        6    1    1    2  502    0  0.17427796229E+03  0.29604431834E+02 -0.60386169730E+02  0.25460699130E+03  0.17300000000E+03 0.  1.
       -6    1    1    2    0  504 -0.21246606419E+03  0.48836186598E+02  0.44419806339E+02  0.28183136935E+03  0.17300000000E+03 0.  1.
</event>
<event>
 6   0  0.4500850E-05  0.4247161E+03  0.7546771E-02  0.1065829E+00
       21   -1    0    0  501  503  0.00000000000E+00  0.00000000000E+00  0.27135314165E+04  0.27135314165E+04  0.00000000000E+00 0. -1.
       21   -1    0    0  503  504  0.00000000000E+00  0.00000000000E+00 -0.68832230367E+03  0.68832230367E+03  0.00000000000E+00 0. -1.
        6    1    1    2  501    0  0.44877854229E+03  0.17257144341E+03  0.88503825657E+03  0.10219612511E+04  0.17300000000E+03 0.  1.
       -6    1    1    2    0  504 -0.53132986139E+02  0.45973085778E+01 -0.19232286419E+03  0.26412370880E+03  0.17300000000E+03 0. -1.
        6    1    1    2  502    0 -0.29512602323E+03  0.20190226872E+03 -0.25459459039E+03  0.47181702084E+03  0.17300000000E+03 0. -1.
       -6    1    1    2    0  502 -0.10051953292E+03 -0.37907102071E+03  0.15870883108E+04  0.16439517394E+04  0.17300000000E+03 0. -1.
</event>
<event>
 6   0  0.4500850E-05  0.3853451E+03  0.7546771E-02  0.1069085E+00
       21   -1    0    0  504  503  0.00000000000E+00  0.00000000000E+00  0.51821040655E+03  0.51821040655E+03  0.00000000000E+00 0. -1.
       21   -1    0    0  501  504  0.00000000000E+00  0.00000000000E+00 -0.16277500723E+04  0.16277500723E+04  0.00000000000E+00 0.  1.
        6    1    1    2  501    0 -0.12995183931E+03  0.35487392810E+02 -0.50587336078E+03  0.55134716172E+03  0.17300000000E+03 0. -1.
       -6    1    1    2    0  503 -0.24874854110E+03 -0.65292134576E+02 -0.17498448034E+03  0.35593183041E+03  0.17300000000E+03 0.  1.
        6    1    1    2  502    0  0.20201320695E+03 -0.30681897019E+03  0.22403999813E+03  0.46375654930E+03  0.17300000000E+03 0. -1.
       -6    1    1    2    0  502  0.17668717346E+03  0.33662371196E+03 -0.65272182272E+03  0.77492493738E+03  0.17300000000E+03 0.  1.
</event>
<event>
 6   0  0.4500850E-05  0.2325016E+03  0.7546771E-02  0.1126300E+00
       21   -1    0    0  501  503  0.00000000000E+00  0.00000000000E+00  0.55386023250E+03  0.55386023250E+03  0.00000000000E+00 0.  1.
       21   -1    0    0  502  504  0.00000000000E+00  0.00000000000E+00 -0.10612248096E+04  0.10612248096E+04  0.00000000000E+00 0.  1.
        6    1    1    2  501    0 -0.60679115109E+02 -0.41753332097E+01 -0.73490201984E+03  0.75743604825E+03  0.17300000000E+03 0.  1.
       -6    1    1    2    0  503 -0.14359286056E+03 -0.12933263520E+03  0.23258994234E+03  0.34838616708E+03  0.17300000000E+03 0.  1.
        6    1    1    2  502    0  0.23444758311E+03  0.15821758276E+03  0.56119248057E+01  0.33160061281E+03  0.17300000000E+03 0.  1.
       -6    1    1    2    0  504 -0.30175607437E+02 -0.24709614351E+02 -0.10664424413E+02  0.17766221397E+03  0.17300000000E+03 0. -1.
</event>
<event>
 6   0  0.4500850E-05  0.6297554E+03  0.7546771E-02  0.9862098E-01
       21   -1    0    0  502  503  0.00000000000E+00  0.00000000000E+00  0.25153539910E+04  0.25153539910E+04  0.00000000000E+00 0.  1.
       21   -1    0    0  501  504  0.00000000000E+00  0.00000000000E+00 -0.18892699548E+03  0.18892699548E+03  0.00000000000E+00 0. -1.
        6    1    1    2  501    0  0.11086441231E+01  0.68021382113E+02  0.28011359106E+03  0.33618560560E+03  0.17300000000E+03 0. -1.
       -6    1    1    2    0  504 -0.19014506365E+03 -0.13213825276E+03  0.81562788270E+03  0.86532855385E+03  0.17300000000E+03 0.  1.
        6    1    1    2  502    0 -0.34092693219E+02 -0.25165163330E+03  0.94021616102E+03  0.98915432857E+03  0.17300000000E+03 0. -1.
       -6    1    1    2    0  503  0.22312911275E+03  0.31576850395E+03  0.29046936073E+03  0.51361249845E+03  0.17300000000E+03 0.  1.
</event>
<event>
 6   0  0.4500850E-05  0.2636717E+03  0.7546771E-02  0.1109274E+00
       21   -1    0    0  502  503  0.00000000000E+00  0.00000000000E+00  0.20132866876E+03  0.20132866876E+03  0.00000000000E+00 0. -1.
       21   -1    0    0  503  504  0.00000000000E+00  0.00000000000E+00 -0.17575911427E+04  0.17575911427E+04  0.00000000000E+00 0.  1.
        6    1    1    2  501    0 -0.41934068740E+02 -0.17669306471E+03 -0.70949968147E+03  0.75252754318E+03  0.17300000000E+03 0. -1.
       -6    1    1    2    0  501 -0.10640037467E+03 -0.18770692304E+03 -0.25424291031E+03  0.37566392711E+03  0.17300000000E+03 0.  1.
        6    1    1    2  502    0  0.51771864060E+02  0.15206142798E+03 -0.94642860409E+02  0.25434086344E+03  0.17300000000E+03 0. -1.
       -6    1    1    2    0  504  0.96562579349E+02  0.21233855977E+03 -0.49787702173E+03  0.57638747772E+03  0.17300000000E+03 0.  1.
</event>
<event>
 6   0  0.4500850E-05  0.4893411E+03  0.7546771E-02  0.1042166E+00
       21   -1    0    0  504  503  0.00000000000E+00  0.00000000000E+00  0.59860204900E+03  0.59860204900E+03  0.00000000000E+00 0. -1.
       21   -1    0    0  502  504  0.00000000000E+00  0.00000000000E+00 -0.18117268119E+04  0.18117268119E+04  0.00000000000E+00 0.  1.
        6    1    1    2  501    0 -0.66860112865E+03 -0.12756931771E+03 -0.73329673051E+03  0.10153592936E+04  0.17300000000E+03 0. -1.
       -6    1    1    2    0  501  0.31350084901E+03 -0.17117968127E+03 -0.85219249191E+02  0.40592682351E+03  0.17300000000E+03 0.  1.
        6    1    1    2  502    0  0.28332438838E+03  0.37670431531E+03 -0.54158244263E+03  0.73852514675E+03  0.17300000000E+03 0. -1.
       -6    1    1    2    0  503  0.71775891253E+02 -0.77955316324E+02  0.14697365940E+03  0.25051759712E+03  0.17300000000E+03 0. -1.
</event>
<event>
 6   0  0.4500850E-05  0.2377661E+03  0.7546771E-02  0.1123339E+00
       21   -1    0    0  502  503  0.00000000000E+00  0.00000000000E+00  0.64636509237E+03  0.64636509237E+03  0.00000000000E+00 0. -1.
       21   -1    0    0  501  504  0.00000000000E+00  0.00000000000E+00 -0.43498535332E+03  0.43498535332E+03  0.00000000000E+00 0. -1.
        6    1    1    2  501    0 -0.16932346772E+03  0.19762519535E+03 -0.46536139401E+02  0.31594424639E+03  0.17300000000E+03 0. -1.
       -6    1    1    2    0  504  0.12296265229E+03 -0.21176403240E+03  0.53107689476E+02  0.30448849889E+03  0.17300000000E+03 0. -1.
        6    1    1    2  502    0 -0.97110284611E+01 -0.28246714326E+02  0.21049479284E+03  0.27409713380E+03  0.17300000000E+03 0. -1.
       -6    1    1    2    0  503  0.56071843893E+02  0.42385551381E+02 -0.56866038737E+01  0.18682056661E+03  0.17300000000E+03 0. -1.
</event>
<event>
 6   0  0.4500850E-05  0.2695045E+03  0.7546771E-02  0.1103860E+00
       21   -1    0    0  502  503  0.00000000000E+00  0.00000000000E+00  0.12523665147E+04  0.12523665147E+04  0.00000000000E+00 0.  1.
       21   -1    0    0  503  504  0.00000000000E+00  0.00000000000E+00 -0.43695638473E+03  0.43695638473E+03  0.00000000000E+00 0.  1.
        6    1    1    2  501    0  0.48314719128E+02 -0.35867015420E+03  0.47389911704E+02  0.40392251154E+03  0.17300000000E+03 0.  1.
       -6    1    1    2    0  504  0.72440717230E+02  0.26835115385E+02 -0.13452436485E+03  0.23236519892E+03  0.17300000000E+03 0.  1.
        6    1    1    2  502    0 -0.12638335193E+02  0.10024041071E+03  0.54528653094E+03  0.58092535517E+03  0.17300000000E+03 0.  1.
       -6    1    1    2    0  501 -0.10811710117E+03  0.23159462810E+03  0.35725805218E+03  0.47210983380E+03  0.17300000000E+03 0.  1.
</event>
<event>
 6   0  0.4500850E-05  0.2360976E+03  0.7546771E-02  0.1133027E+00
       21   -1    0    0  504  503  0.00000000000E+00  0.00000000000E+00  0.49104087027E+03  0.49104087027E+03  0.00000000000E+00 0. -1.
       21   -1    0    0  501  504  0.00000000000E+00  0.00000000000E+00 -0.58277639584E+03  0.58277639584E+03  0.00000000000E+00 0. -1.
        6    1    1    2  501    0  0.22763151185E+02  0.38555462504E+02  0.76702466877E+02  0.19446581490E+03  0.17300000000E+03 0. -1.
       -6    1    1    2    0  502  0.83431407791E+02  0.12242805997E+03 -0.19386201578E+03  0.29910016856E+03  0.17300000000E+03 0. -1.
        6    1    1    2  502    0  0.47650517366E+02 -0.20776966166E+03  0.15040357664E+03  0.31303201111E+03  0.17300000000E+03 0. -1.
       -6    1    1    2    0  503 -0.15384507634E+03  0.46786139190E+02 -0.12497955330E+03  0.26721927153E+03  0.17300000000E+03 0.  1.
</event>
<event>
 6   0  0.4500850E-05  0.2713176E+03  0.7546771E-02  0.1111779E+00
       21   -1    0    0  501  503  0.00000000000E+00  0.00000000000E+00  0.12758068372E+04  0.12758068372E+04  0.00000000000E+00 0.  1.
       21   -1    0    0  502  504  0.00000000000E+00  0.00000000000E+00 -0.69966806250E+03  0.69966806250E+03  0.00000000000E+00 0. -1.
        6    1    1    2  501    0 -0.64574485040E+02 -0.42401508890E+02  0.82880250841E+03  0.85018253924E+03  0.17300000000E+03 0.  1.
       -6    1    1    2    0  503 -0.40348266940E+02  0.18213072621E+03 -0.42194059471E+03  0.49270929517E+03  0.17300000000E+03 0. -1.
        6    1    1    2  502    0 -0.61971402441E+02 -0.27162314639E+03  0.14089294956E+03  0.35693054172E+03  0.17300000000E+03 0.  1.
       -6    1    1    2    0  504  0.16689415442E+03  0.13189392907E+03  0.28383911395E+02  0.27565252353E+03  0.17300000000E+03 0.  1.
</event>
<event>
 6   0  0.4500850E-05  0.3243511E+03  0.7546771E-02  0.1083662E+00
       21   -1    0    0  504  503  0.00000000000E+00  0.00000000000E+00  0.64053029416E+03  0.64053029416E+03  0.00000000000E+00 0. -1.
       21   -1    0    0  501  504  0.00000000000E+00  0.00000000000E+00 -0.11040146372E+04  0.11040146372E+04  0.00000000000E+00 0.  1.
        6    1    1    2  501    0 -0.22269553231E+03 -0.33646241399E+02 -0.70436596893E+03  0.75946414521E+03  0.17300000000E+03 0.  1.
       -6    1    1    2    0  502 -0.18184278688E+03 -0.73871635907E+02 -0.10116611157E+03  0.28051274456E+03  0.17300000000E+03 0. -1.
        6    1    1    2  502    0  0.33797923364E+03  0.17191595731E+03  0.26412286409E+03  0.49343180490E+03  0.17300000000E+03 0.  1.
       -6    1    1    2    0  503  0.66559085558E+02 -0.64398080006E+02  0.77924873332E+02  0.21113623673E+03  0.17300000000E+03 0.  1.
</event>
<event>
 6   0  0.4500850E-05  0.3388056E+03  0.7546771E-02  0.1072574E+00
       21   -1    0    0  504  503  0.00000000000E+00  0.00000000000E+00  0.11459187544E+04  0.11459187544E+04  0.00000000000E+00 0. -1.
       21   -1    0    0  501  504  0.00000000000E+00  0.00000000000E+00 -0.25242516362E+04  0.25242516362E+04  0.00000000000E+00 0. -1.
        6    1    1    2  501    0  0.13206071535E+03  0.71951991487E+02 -0.21725397179E+04  0.21845994936E+04  0.17300000000E+03 0. -1.
       -6    1    1    2    0  502 -0.33806817493E+03 -0.48069332804E+03  0.45200039775E+03  0.76130777357E+03  0.17300000000E+03 0. -1.
        6    1    1    2  502    0  0.12363860164E+03  0.35601206673E+03  0.13246383487E+03  0.43532374506E+03  0.17300000000E+03 0. -1.
       -6    1    1    2    0  503  0.82368857942E+02  0.52729269828E+02  0.20974260347E+03  0.28893937836E+03  0.17300000000E+03 0.  1.
</event>
<event>
 6   0  0.4500850E-05  0.2241118E+03  0.7546771E-02  0.1137810E+00
       21   -1    0    0  504  503  0.00000000000E+00  0.00000000000E+00  0.13984013391E+04  0.13984013391E+04  0.00000000000E+00 0.  1.
       21   -1    0    0  501  504  0.00000000000E+00  0.00000000000E+00 -0.19764279399E+03  0.19764279399E+03  0.00000000000E+00 0. -1.
        6    1    1    2  501    0  0.49565520406E+02  0.21706532322E+03  0.48700058435E+02  0.28613771343E+03  0.17300000000E+03 0. -1.
       -6    1    1    2    0  503 -0.35833696983E+02 -0.34427256164E+02  0.33171233811E+03  0.37740080162E+03  0.17300000000E+03 0.  1.
        6    1    1    2  502    0  0.77059394249E+02 -0.12043610786E+03  0.54334756481E+03  0.58787633267E+03  0.17300000000E+03 0.  1.
       -6    1    1    2    0  502 -0.90791217672E+02 -0.62201959190E+02  0.27699858371E+03  0.34462928533E+03  0.17300000000E+03 0.  1.
</event>
<event>
 6   0  0.4500850E-05  0.4138937E+03  0.7546771E-02  0.1057416E+00
       21   -1    0    0  501  503  0.00000000000E+00  0.00000000000E+00  0.59318333379E+03  0.59318333379E+03  0.00000000000E+00 0. -1.
       21   -1    0    0  502  504  0.00000000000E+00  0.00000000000E+00 -0.53219952012E+03  0.53219952012E+03  0.00000000000E+00 0. -1.
        6    1    1    2  501    0  0.41300642211E+00  0.32427395373E+03  0.69319259330E+02  0.37401594532E+03  0.17300000000E+03 0. -1.
       -6    1    1    2    0  504 -0.68661349117E+01 -0.25959301135E+03  0.97817543546E+02  0.32700603538E+03  0.17300000000E+03 0. -1.
        6    1    1    2  502    0  0.87181690430E+01 -0.10392549426E+03 -0.13728660189E+03  0.24423989414E+03  0.17300000000E+03 0.  1.
       -6    1    1    2    0  503 -0.22650405534E+01  0.39244551886E+02  0.31133612687E+02  0.18012097907E+03  0.17300000000E+03 0. -1.
</event>
<event>
 6   0  0.4500850E-05  0.3211526E+03  0.7546771E-02  0.1087474E+00
       21   -1    0    0  501  503  0.00000000000E+00  0.00000000000E+00  0.17211782571E+04  0.17211782571E+04  0.00000000000E+00 0. -1.
       21   -1    0    0  502  504  0.00000000000E+00  0.00000000000E+00 -0.29899915910E+03  0.29899915910E+03  0.00000000000E+00 0.  1.
        6    1    1    2  501    0 -0.13591146930E+03  0.29680515932E+03  0.57617125946E+03  0.68444689371E+03  0.17300000000E+03 0. -1.
       -6    1    1    2    0  503  0.63032406712E+02 -0.64680757741E+02  0.40677696114E+03  0.45116868334E+03  0.17300000000E+03 0. -1.
        6    1    1    2  502    0  0.24674809161E+03 -0.37508330728E+03  0.31207225852E+03  0.57348949655E+03  0.17300000000E+03 0. -1.
       -6    1    1    2    0  504 -0.17386902903E+03  0.14295890570E+03  0.12715861888E+03  0.31107234260E+03  0.17300000000E+03 0.  1.
</event>
<event>
 6   0  0.4500850E-05  0.2160329E+03  0.7546771E-02  0.1139396E+00
       21   -1    0    0  501  503  0.00000000000E+00  0.00000000000E+00  0.67463079306E+03  0.67463079306E+03  0.00000000000E+00 0.  1.
       21   -1    0    0  502  504  0.00000000000E+00  0.00000000000E+00 -0.43597244545E+03  0.43597244545E+03  0.00000000000E+00 0.  1.
        6    1    1    2  501    0  0.37133713457E+02  0.13004436474E+03 -0.21921678811E+03  0.31028285429E+03  0.17300000000E+03 0.  1.
       -6    1    1    2    0  503  0.82428411650E+02  0.67734405277E+02  0.20896844514E+03  0.29151192732E+03  0.17300000000E+03 0.  1.
        6    1    1    2  502    0 -0.25917705512E+02 -0.11241545077E+03  0.20074134267E+03  0.28902430294E+03  0.17300000000E+03 0.  1.
       -6    1    1    2    0  504 -0.93644419595E+02 -0.85363319241E+02  0.48165347915E+02  0.21978415396E+03  0.17300000000E+03 0.  1.
</event>
<event>
 6   0  0.4500850E-05  0.3572663E+03  0.7546771E-02  0.1085941E+00
       21   -1    0    0  501  503  0.00000000000E+00  0.00000000000E+00  0.13412244891E+04  0.13412244891E+04  0.00000000000E+00 0.  1.
       21   -1    0    0  502  504  0.00000000000E+00  0.00000000000E+00 -0.55569874142E+03  0.55569874142E+03  0.00000000000E+00 0.  1.
        6    1    1    2  501    0 -0.29571893342E+03 -0.32780961447E+03  0.54612167529E+03  0.72324734022E+03  0.17300000000E+03 0.  1.
       -6    1    1    2    0  503  0.16847215350E+03  0.10362668601E+03  0.22715535101E+03  0.34734695917E+03  0.17300000000E+03 0.  1.
        6    1    1    2  502    0  0.16217479409E+02  0.14253762753E+02 -0.33124082897E+03  0.37432026818E+03  0.17300000000E+03 0.  1.
       -6    1    1    2    0  504  0.11102930051E+03  0.20992916571E+03  0.34348955036E+03  0.45200866297E+03  0.17300000000E+03 0. -1.
</event>
<event>
 6   0  0.4500850E-05  0.5249106E+03  0.7546771E-02  0.1007474E+00
       -2   -1    0    0    0  501  0.00000000000E+00  0.00000000000E+00  0.23087750737E+03  0.23087750737E+03  0.00000000000E+00 0.  1.
        2   -1    0    0  503    0  0.00000000000E+00  0.00000000000E+00 -0.13038979560E+04  0.13038979560E+04  0.00000000000E+00 0. -1.
        6    1    1    2  502    0 -0.36347049723E+03  0.78960034384E+02 -0.53510618781E+03  0.67425004384E+03  0.17300000000E+03 0. -1.
       -6    1    1    2    0  501  0.59706145621E+02  0.40433371458E+01 -0.11278648249E+03  0.21501386707E+03  0.17300000000E+03 0.  1.
        6    1    1    2  503    0  0.72634503019E+02 -0.24682233642E+02 -0.13835052038E+03  0.23442450848E+03  0.17300000000E+03 0.  1.
       -6    1    1    2    0  502  0.23112984859E+03 -0.58321137888E+02 -0.28677725792E+03  0.41108704394E+03  0.17300000000E+03 0.  1.
</event>
<event>
 6   0  0.4500850E-05  0.2845808E+03  0.7546771E-02  0.1094554E+00
       21   -1    0    0  502  503  0.00000000000E+00  0.00000000000E+00  0.36467325124E+03  0.36467325124E+03  0.00000000000E+00 0.  1.
       21   -1    0    0  503  504  0.00000000000E+00  0.00000000000E+00 -0.14241097250E+04  0.14241097250E+04  0.00000000000E+00 0. -1.
        6    1    1    2  501    0 -0.59607800539E+02  0.20856928634E+03 -0.62249950578E+03  0.68153420441E+03  0.17300000000E+03 0. -1.
       -6    1    1    2    0  501  0.92093924074E+02 -0.28022976960E+03 -0.48453033905E+02  0.34537908320E+03  0.17300000000E+03 0.  1.
        6    1    1    2  502    0 -0.18885774656E+03 -0.25116448537E+02  0.44000473966E+02  0.26108068893E+03  0.17300000000E+03 0. -1.
       -6    1    1    2    0  504  0.15637162302E+03  0.96776931795E+02 -0.43248440803E+03  0.50078899969E+03  0.17300000000E+03 0. -1.
</event>
<event>
 6   0  0.4500850E-05  0.2715595E+03  0.7546771E-02  0.1106551E+00
       21   -1    0    0  501  503  0.00000000000E+00  0.00000000000E+00  0.88869765745E+03  0.88869765745E+03  0.00000000000E+00 0. -1.
       21   -1    0    0  503  504  0.00000000000E+00  0.00000000000E+00 -0.14149295001E+04  0.14149295001E+04  0.00000000000E+00 0.  1.
        6    1    1    2  501    0 -0.83690390450E+01  0.17653109257E+03  0.38156113903E+02  0.25023620139E+03  0.17300000000E+03 0.  1.
       -6    1    1    2    0  504  0.50121232697E+02  0.12712437111E+03 -0.51755297458E+03  0.56255028681E+03  0.17300000000E+03 0.  1.
        6    1    1    2  502    0  0.18455106481E+03 -0.96649726174E+02 -0.69903543798E+03  0.74965312555E+03  0.17300000000E+03 0. -1.
       -6    1    1    2    0  502 -0.22630325847E+03 -0.20700573751E+03  0.65220045604E+03  0.74118754376E+03  0.17300000000E+03 0. -1.
</event>
<event>
 6   0  0.4500850E-05  0.2348804E+03  0.7546771E-02  0.1129133E+00
       21   -1    0    0  502  503  0.00000000000E+00  0.00000000000E+00  0.27851583695E+03  0.27851583695E+03  0.00000000000E+00 0. -1.
       21   -1    0    0  501  504  0.00000000000E+00  0.00000000000E+00 -0.19961935694E+04  0.19961935694E+04  0.00000000000E+00 0.  1.
        6    1    1    2  501    0  0.98789643154E+02  0.11225341349E+03 -0.26048501366E+03  0.34661457669E+03  0.17300000000E+03 0. -1.
       -6    1    1    2    0  504 -0.86541351680E+02  0.14580010426E+03 -0.12239649125E+04  0.12477043652E+04  0.17300000000E+03 0. -1.
        6    1    1    2  502    0 -0.16429956998E+02 -0.15176428101E+03 -0.36964592615E+03  0.43574011887E+03  0.17300000000E+03 0.  1.
       -6    1    1    2    0  503  0.41816655236E+01 -0.10628923674E+03  0.13641811984E+03  0.24465034558E+03  0.17300000000E+03 0. -1.
</event>
<event>
 6   0  0.4500850E-05  0.6582001E+03  0.7546771E-02  0.1016296E+00
       21   -1    0    0  501  503  0.00000000000E+00  0.00000000000E+00  0.37195676286E+03  0.37195676286E+03  0.00000000000E+00 0. -1.
       21   -1    0    0  503  504  0.00000000000E+00  0.00000000000E+00 -0.24466054960E+04  0.24466054960E+04  0.00000000000E+00 0.  1.
        6    1    1    2  501    0 -0.32163479841E+02 -0.24226143965E+03 -0.14163070807E+03  0.33123005909E+03  0.17300000000E+03 0.  1.
       -6    1    1    2    0  504  0.82088017448E+02  0.67227138621E+02 -0.30219874259E+03  0.36402061865E+03  0.17300000000E+03 0. -1.
        6    1    1    2  502    0 -0.78429456619E+02  0.45109536616E+03 -0.17167632182E+04  0.17851731447E+04  0.17300000000E+03 0.  1.
       -6    1    1    2    0  502  0.28504919012E+02 -0.27606106513E+03  0.85943935770E+02  0.33813843642E+03  0.17300000000E+03 0. -1.
</event>
<event>
 6   0  0.4500850E-05  0.2919045E+03  0.7546771E-02  0.1089855E+00
       21   -1    0    0  504  503  0.00000000000E+00  0.00000000000E+00  0.65075806226E+03  0.65075806226E+03  0.00000000000E+00 0. -1.
       21   -1    0    0  502  504  0.00000000000E+00  0.00000000000E+00 -0.20392399010E+04  0.20392399010E+04  0.00000000000E+00 0. -1.
        6    1    1    2  501    0  0.13284585954E+02 -0.34165668102E+03 -0.76026730142E+02  0.39065948293E+03  0.17300000000E+03 0. -1.
       -6    1    1    2    0  501 -0.23275807397E+02  0.31801869605E+03 -0.27905645688E+03  0.45768893408E+03  0.17300000000E+03 0. -1.
        6    1    1    2  502    0  0.15447085510E+03  0.11831662665E+02 -0.13956490563E+04  0.14148379842E+04  0.17300000000E+03 0. -1.
       -6    1    1    2    0  503 -0.14447963365E+03  0.11806322302E+02  0.36225040462E+03  0.42681156197E+03  0.17300000000E+03 0. -1.
</event>
<event>
 6   0  0.4500850E-05  0.3275947E+03  0.7546771E-02  0.1078577E+00
       21   -1    0    0  501  503  0.00000000000E+00  0.00000000000E+00  0.91680180360E+03  0.91680180360E+03  0.00000000000E+00 0. -1.
       21   -1    0    0  503  504  0.00000000000E+00  0.00000000000E+00 -0.59580140582E+03  0.59580140582E+03  0.00000000000E+00 0.  1.
        6    1    1    2  501    0 -0.24599010800E+03 -0.44438789956E+03  0.30083939006E+03  0.61516264282E+03  0.17300000000E+03 0. -1.
       -6    1    1    2    0  502  0.14498433980E+03  0.36755106000E+03  0.87323017722E+01  0.43141568538E+03  0.17300000000E+03 0. -1.
        6    1    1    2  502    0  0.42373495031E+02 -0.45179291093E+02  0.12153050680E+03  0.22030738868E+03  0.17300000000E+03 0. -1.
       -6    1    1    2    0  504  0.58632273170E+02  0.12201613065E+03 -0.11010180085E+03  0.24571749255E+03  0.17300000000E+03 0.  1.
</event>
<event>
 6   0  0.4500850E-05  0.2475935E+03  0.7546771E-02  0.1126263E+00
       21   -1    0    0  502  503  0.00000000000E+00  0.00000000000E+00  0.10833966913E+04  0.10833966913E+04  0.00000000000E+00 0.  1.
       21   -1    0    0  501  504  0.00000000000E+00  0.00000000000E+00 -0.49890344514E+03  0.49890344514E+03  0.00000000000E+00 0.  1.
        6    1    1    2  501    0 -0.12995420761E+03 -0.51890227752E+02  0.11304317631E+03  0.24957654441E+03  0.17300000000E+03 0. -1.
       -6    1    1    2    0  504 -0.86943756473E+02  0.16147105176E+03 -0.30805773853E+03  0.39807120923E+03  0.17300000000E+03 0.  1.
        6    1    1    2  502    0  0.18953212310E+03 -0.46699657983E+02  0.20800592946E+03  0.33361467359E+03  0.17300000000E+03 0. -1.
       -6    1    1    2    0  503  0.27365840978E+02 -0.62881166028E+02  0.57150187891E+03  0.60103770921E+03  0.17300000000E+03 0.  1.
</event>
<event>
 6   0  0.4500850E-05  0.2231796E+03  0.7546771E-02  0.1135016E+00
       21   -1    0    0  501  503  0.00000000000E+00  0.00000000000E+00  0.93819124417E+03  0.93819124417E+03  0.00000000000E+00 0. -1.
       21   -1    0    0  503  504  0.00000000000E+00  0.00000000000E+00 -0.47891262374E+03  0.47891262374E+03  0.00000000000E+00 0. -1.
        6    1    1    2  501    0  0.19685606287E+03 -0.44947418483E+02  0.61118628452E+03  0.66652100814E+03  0.17300000000E+03 0. -1.
       -6    1    1    2    0  504  0.42361907336E+01 -0.13262760781E+03 -0.18521526731E+03  0.28607992399E+03  0.17300000000E+03 0. -1.
        6    1    1    2  502    0 -0.13897433051E+03  0.29174992331E+02  0.43654756251E+02  0.22803460803E+03  0.17300000000E+03 0. -1.
       -6    1    1    2    0  502 -0.62117923090E+02  0.14840003396E+03 -0.10347153029E+02  0.23646832774E+03  0.17300000000E+03 0. -1.
</event>
<event>
 6   0  0.4500850E-05  0.9482812E+03  0.7546771E-02  0.9453073E-01
       21   -1    0    0  501  503  0.00000000000E+00  0.00000000000E+00  0.36263261772E+04  0.36263261772E+04  0.00000000000E+00 0.  1.
       21   -1    0    0  502  504  0.00000000000E+00  0.00000000000E+00 -0.20510872246E+03  0.20510872246E+03  0.00000000000E+00 0.  1.
        6    1    1    2  501    0  0.94374451652E+02  0.16716417252E+03  0.55587462744E+03  0.61300570889E+03  0.17300000000E+03 0.  1.
       -6    1    1    2    0  503 -0.22584220090E+03  0.23087088737E+03  0.10086176729E+04  0.10731004969E+04  0.17300000000E+03 0. -1.
        6    1    1    2  502    0  0.13380533377E+03 -0.66281584207E+03  0.90795648499E+03  0.11452260417E+04  0.17300000000E+03 0.  1.
       -6    1    1    2    0  504 -0.23375845168E+01  0.26478078218E+03  0.94876866938E+03  0.10001026522E+04  0.17300000000E+03 0. -1.
</event>
<event>
 6   0  0.4500850E-05  0.2493453E+03  0.7546771E-02  0.1114350E+00
       21   -1    0    0  502  503  0.00000000000E+00  0.00000000000E+00  0.46587183415E+03  0.46587183415E+03  0.00000000000E+00 0. -1.
       21   -1    0    0  503  504  0.00000000000E+00  0.00000000000E+00 -0.20105433967E+04  0.20105433967E+04  0.00000000000E+00 0. -1.
        6    1    1    2  501    0  0.11114920564E+03  0.78924398810E+02  0.10309156060E+02  0.22049599847E+03  0.17300000000E+03 0. -1.
       -6    1    1    2    0  504  0.92406944275E+02 -0.93803685586E+02 -0.11787684314E+04  0.11986501532E+04  0.17300000000E+03 0. -1.
        6    1    1    2  502    0  0.84344380623E+02  0.93193777303E+02  0.25814869224E+03  0.33521456110E+03  0.17300000000E+03 0. -1.
       -6    1    1    2    0  501 -0.28790053053E+03 -0.78314490527E+02 -0.63436097941E+03  0.72205451810E+03  0.17300000000E+03 0. -1.
</event>
<event>
 6   0  0.4500850E-05  0.7938147E+03  0.7546771E-02  0.9938145E-01
       21   -1    0    0  502  503  0.00000000000E+00  0.00000000000E+00  0.54643234180E+03  0.54643234180E+03  0.00000000000E+00 0. -1.
       21   -1    0    0  501  504  0.00000000000E+00  0.00000000000E+00 -0.18010759999E+04  0.18010759999E+04  0.00000000000E+00 0. -1.
        6    1    1    2  501    0 -0.19376417523E+03 -0.48593926697E+03 -0.65224332648E+03  0.85383363937E+03  0.17300000000E+03 0. -1.
       -6    1    1    2    0  503 -0.11983689880E+03 -0.10068915442E+03  0.11027643972E+03  0.25804860257E+03  0.17300000000E+03 0.  1.
        6    1    1    2  502    0  0.34938484865E+03  0.67795865348E+03 -0.43754238842E+03  0.89614175773E+03  0.17300000000E+03 0. -1.
       -6    1    1    2    0  504 -0.35783774619E+02 -0.91330232079E+02 -0.27513438293E+03  0.33948434204E+03  0.17300000000E+03 0. -1.
</event>
<event>
 6   0  0.4500850E-05  0.2559990E+03  0.7546771E-02  0.1112817E+00
       21   -1    0    0  501  503  0.00000000000E+00  0.00000000000E+00  0.53015879174E+03  0.53015879174E+03  0.00000000000E+00 0.  1.
       21   -1    0    0  502  504  0.00000000000E+00  0.00000000000E+00 -0.11026317450E+04  0.11026317450E+04  0.00000000000E+00 0. -1.
        6    1    1    2  501    0 -0.83532297607E+02  0.93252679673E+02  0.31606769564E+03  0.38144658241E+03  0.17300000000E+03 0.  1.
       -6    1    1    2    0  504 -0.24603466677E+03 -0.12524531539E+03 -0.21142864388E+03  0.38839479622E+03  0.17300000000E+03 0. -1.
        6    1    1    2  502    0  0.25148471692E+03 -0.18029191476E+02 -0.25772442603E+03  0.39990060560E+03  0.17300000000E+03 0.  1.
       -6    1    1    2    0  503  0.78082247461E+02  0.50021827195E+02 -0.41938757896E+03  0.46304855247E+03  0.17300000000E+03 0. -1.
</event>
<event>
 6   0  0.4500850E-05  0.4412144E+03  0.7546771E-02  0.1050440E+00
       21   -1    0    0  504  503  0.00000000000E+00  0.00000000000E+00  0.56878562703E+03  0.56878562703E+03  0.00000000000E+00 0. -1.
       21   -1    0    0  501  504  0.00000000000E+00  0.00000000000E+00 -0.16372987802E+04  0.16372987802E+04  0.00000000000E+00 0. -1.
        6    1    1    2  501    0 -0.67089568500E+02  0.25274371955E+03 -0.34698582945E+03  0.46766287410E+03  0.17300000000E+03 0.  1.
       -6    1    1    2    0  502 -0.53862989862E+03  0.11313357648E+02 -0.55598175080E+03  0.79328107690E+03  0.17300000000E+03 0. -1.
        6    1    1    2  502    0  0.58439564668E+03 -0.29134794668E+03 -0.28382834466E+03  0.73272738936E+03  0.17300000000E+03 0. -1.
       -6    1    1    2    0  503  0.21323820441E+02  0.27290869490E+02  0.11828277175E+03  0.21241306685E+03  0.17300000000E+03 0. -1.
</event>
<event>
 6   0  0.4500850E-05  0.7490421E+03  0.7546771E-02  0.9856472E-01
       21   -1    0    0  502  503  0.00000000000E+00  0.00000000000E+00  0.16049025947E+04  0.16049025947E+04  0.00000000000E+00 0.  1.
       21   -1    0    0  501  504  0.00000000000E+00  0.00000000000E+00 -0.11630957654E+04  0.11630957654E+04  0.00000000000E+00 0.  1.
        6    1    1    2  501    0  0.39021144137E+03  0.43517927003E+03 -0.49993615365E+03  0.78835976798E+03  0.17300000000E+03 0.  1.
       -6    1    1    2    0  504 -0.63268634967E+03 -0.21303733477E+03  0.11103368788E+04  0.13070783861E+04  0.17300000000E+03 0.  1.
        6    1    1    2  502    0  0.15803337839E+02 -0.28802151964E+03 -0.31414830700E+01  0.33637034676E+03  0.17300000000E+03 0. -1.
       -6    1    1    2    0  503  0.22667157046E+03  0.65879584378E+02 -0.16545241287E+03  0.33618985918E+03  0.17300000000E+03 0. -1.
</event>
<event>
 6   0  0.4500850E-05  0.2487907E+03  0.7546771E-02  0.1128491E+00
       21   -1    0    0  501  503  0.00000000000E+00  0.00000000000E+00  0.13526416234E+03  0.13526416234E+03  0.00000000000E+00 0. -1.
       21   -1    0    0  502  504  0.00000000000E+00  0.00000000000E+00 -0.14966262089E+04  0.14966262089E+04  0.00000000000E+00 0.  1.
        6    1    1    2  501    0 -0.15643988752E+03  0.20544235495E+02 -0.36866294787E+03  0.43673432789E+03  0.17300000000E+03 0. -1.
       -6    1    1    2    0  504 -0.52242019483E+02 -0.95433119348E+02 -0.21135909088E+03  0.29400403767E+03  0.17300000000E+03 0.  1.
        6    1    1    2  502    0  0.12243148240E+02  0.78989431229E+01 -0.24099546274E+03  0.29701868803E+03  0.17300000000E+03 0. -1.
       -6    1    1    2    0  503  0.19643875876E+03  0.66989940730E+02 -0.54034454505E+03  0.60413331763E+03  0.17300000000E+03 0. -1.
</event>
<event>
 6   0  0.4500850E-05  0.4468736E+03  0.7546771E-02  0.1041337E+00
       21   -1    0    0  502  503  0.00000000000E+00  0.00000000000E+00  0.17131434457E+04  0.17131434457E+04  0.00000000000E+00 0.  1.
       21   -1    0    0  503  504  0.00000000000E+00  0.00000000000E+00 -0.23155113828E+03  0.23155113828E+03  0.00000000000E+00 0.  1.
        6    1    1    2  501    0  0.27234630310E+03 -0.30701834466E+02  0.31267148682E+03  0.45034161491E+03  0.17300000000E+03 0. -1.
       -6    1    1    2    0  501  0.19308847355E+03  0.49094529136E+02  0.61958964720E+03  0.67343430439E+03  0.17300000000E+03 0.  1.
        6    1    1    2  502    0 -0.11497349838E+03  0.39964886533E+02  0.23331891392E+03  0.31493302951E+03  0.17300000000E+03 0. -1.
       -6    1    1    2    0  504 -0.35046127827E+03 -0.58357581203E+02  0.31601225946E+03  0.50598563515E+03  0.17300000000E+03 0.  1.
</event>
<event>
 6   0  0.4500850E-05  0.3240287E+03  0.7546771E-02  0.1093522E+00
       21   -1    0    0  501  503  0.00000000000E+00  0.00000000000E+00  0.29580638209E+04  0.29580638209E+04  0.00000000000E+00 0. -1.
       21   -1    0    0  502  504  0.00000000000E+00  0.00000000000E+00 -0.22427087717E+03  0.22427087717E+03  0.00000000000E+00 0.  1.
        6    1    1    2  501    0  0.24220150413E+03  0.84247723156E+02  0.47810215053E+03  0.56944702458E+03  0.17300000000E+03 0.  1.
       -6    1    1    2    0  503 -0.96056531081E+01  0.49164506523E+02  0.90866757283E+03  0.92634506270E+03  0.17300000000E+03 0. -1.
        6    1    1    2  502    0 -0.13814155962E+03 -0.36206398205E+03  0.13163948844E+04  0.13831116763E+04  0.17300000000E+03 0.  1.
       -6    1    1    2    0  504 -0.94454291401E+02  0.22865175237E+03  0.30628335993E+02  0.30343093446E+03  0.17300000000E+03 0.  1.
</event>
<event>
 6   0  0.4500850E-05  0.5279433E+03  0.7546771E-02  0.1035884E+00
       21   -1    0    0  501  503  0.00000000000E+00  0.00000000000E+00  0.48215937840E+03  0.48215937840E+03  0.00000000000E+00 0.  1.
       21   -1    0    0  502  504  0.00000000000E+00  0.00000000000E+00 -0.72918697755E+03  0.72918697755E+03  0.00000000000E+00 0. -1.
        6    1    1    2  501    0 -0.23560801990E+03  0.41834465503E+02  0.72226082141E+02  0.30398498069E+03  0.17300000000E+03 0.  1.
       -6    1    1    2    0  503  0.35159980278E+03 -0.19422498407E+03 -0.18526966464E+03  0.47497327755E+03  0.17300000000E+03 0.  1.
        6    1    1    2  502    0 -0.36040706686E+02  0.12921159811E+03 -0.64558073317E+02  0.22823521738E+03  0.17300000000E+03 0. -1.
       -6    1    1    2    0  504 -0.79951076190E+02  0.23178920456E+02 -0.69425943337E+02  0.20415288033E+03  0.17300000000E+03 0. -1.
</event>
<event>
 6   0  0.4500850E-05  0.2612556E+03  0.7546771E-02  0.1108391E+00
       21   -1    0    0  502  503  0.00000000000E+00  0.00000000000E+00  0.78828314083E+03  0.78828314083E+03  0.00000000000E+00 0.  1.
       21   -1    0    0  501  504  0.00000000000E+00  0.00000000000E+00 -0.76802691090E+03  0.76802691090E+03  0.00000000000E+00 0.  1.
        6    1    1    2  501    0 -0.44722685221E+02 -0.91950528305E+02 -0.25883007139E+03  0.32768433604E+03  0.17300000000E+03 0.  1.
       -6    1    1    2    0  504 -0.85275637293E+02  0.22845217658E+03  0.12077648451E+03  0.32245664904E+03  0.17300000000E+03 0. -1.
        6    1    1    2  502    0 -0.11938228477E+03  0.48952413074E+01  0.42759267245E+03  0.47648776148E+03  0.17300000000E+03 0.  1.
       -6    1    1    2    0  503  0.24938060728E+03 -0.14139688958E+03 -0.26928285565E+03  0.42968130518E+03  0.17300000000E+03 0.  1.
</event>
<event>
 6   0  0.4500850E-05  0.3159051E+03  0.7546771E-02  0.1100303E+00
       21   -1    0    0  501  503  0.00000000000E+00  0.00000000000E+00  0.92696849153E+03  0.92696849153E+03  0.00000000000E+00 0.  1.
       21   -1    0    0  503  504  0.00000000000E+00  0.00000000000E+00 -0.49123405545E+03  0.49123405545E+03  0.00000000000E+00 0. -1.
        6    1    1    2  501    0 -0.29825967613E+02 -0.27104776664E+03  0.20686698760E+03  0.38350936195E+03  0.17300000000E+03 0. -1.
       -6    1    1    2    0  502  0.27081846245E+03  0.78094215088E+02  0.33530839253E+03  0.47095866499E+03  0.17300000000E+03 0.  1.
        6    1    1    2  502    0 -0.22179289657E+03  0.17644077627E+03  0.41595809142E+02  0.33463808486E+03  0.17300000000E+03 0. -1.
       -6    1    1    2    0  504 -0.19199598264E+02  0.16512775286E+02 -0.14803675318E+03  0.22909643518E+03  0.17300000000E+03 0. -1.
</event>
<event>
 6   0  0.4500850E-05  0.1961491E+03  0.7546771E-02  0.1154581E+00
       21   -1    0    0  501  503  0.00000000000E+00  0.00000000000E+00  0.99314538256E+03  0.99314538256E+03  0.00000000000E+00 0. -1.
       21   -1    0    0  502  504  0.00000000000E+00  0.00000000000E+00 -0.34440766068E+03  0.34440766068E+03  0.00000000000E+00 0. -1.
        6    1    1    2  501    0  0.83909065008E+01  0.63956006516E+02  0.62697548357E+03  0.65359623245E+03  0.17300000000E+03 0. -1.
       -6    1    1    2    0  504  0.36229794809E+02  0.39618987988E+02  0.11569836991E+03  0.21493574631E+03  0.17300000000E+03 0.  1.
        6    1    1    2  502    0 -0.11177292135E+03 -0.10779363811E+03 -0.14812466681E+03  0.27564936293E+03  0.17300000000E+03 0. -1.
       -6    1    1    2    0  503  0.67152220044E+02  0.42186436063E+01  0.54188535213E+02  0.19337170155E+03  0.17300000000E+03 0. -1.
</event>
<event>
 6   0  0.4500850E-05  0.4669301E+03  0.7546771E-02  0.1023102E+00
       -1   -1    0    0    0  501  0.00000000000E+00  0.00000000000E+00  0.21135323810E+03  0.21135323810E+03  0.00000000000E+00 0.  1.
        1   -1    0    0  503    0  0.00000000000E+00  0.00000000000E+00 -0.10249500172E+04  0.10249500172E+04  0.00000000000E+00 0. -1.
        6    1    1    2  502    0  0.15096755848E+03 -0.20929995399E+01 -0.22767611039E+03  0.32335892690E+03  0.17300000000E+03 0.  1.
       -6    1    1    2    0  502 -0.18283643675E+03  0.12445906681E+03 -0.31348203863E+03  0.42085533198E+03  0.17300000000E+03 0. -1.
        6    1    1    2  503    0  0.15838991255E+02  0.32649805695E+02 -0.12487079592E+03  0.21642227041E+03  0.17300000000E+03 0. -1.
       -6    1    1    2    0  501  0.16029887014E+02 -0.15501587296E+03 -0.14756783414E+03  0.27566672599E+03  0.17300000000E+03 0.  1.
</event>
<event>
 6   0  0.4500850E-05  0.2695624E+03  0.7546771E-02  0.1114199E+00
       21   -1    0    0  501  503  0.00000000000E+00  0.00000000000E+00  0.17152336802E+04  0.17152336802E+04  0.00000000000E+00 0. -1.
       21   -1    0    0  502  504  0.00000000000E+00  0.00000000000E+00 -0.45859942319E+03  0.45859942319E+03  0.00000000000E+00 0. -1.
        6    1    1    2  501    0 -0.18822554266E+03 -0.60796302747E+02  0.32753853096E+03  0.41992324846E+03  0.17300000000E+03 0. -1.
       -6    1    1    2    0  504  0.17876196159E+03  0.11302295946E+03  0.11374378809E+04  0.11697965469E+04  0.17300000000E+03 0. -1.
        6    1    1    2  502    0 -0.36806966564E+02 -0.12930333083E+03 -0.29771200657E+03  0.36964245293E+03  0.17300000000E+03 0. -1.
       -6    1    1    2    0  503  0.46270547636E+02  0.77076674119E+02  0.89369851684E+02  0.21447085504E+03  0.17300000000E+03 0. -1.
</event>
<event>
 6   0  0.4500850E-05  0.2501375E+03  0.7546771E-02  0.1114217E+00
       21   -1    0    0  501  503  0.00000000000E+00  0.00000000000E+00  0.15750151346E+04  0.15750151346E+04  0.00000000000E+00 0. -1.
       21   -1    0    0  502  504  0.00000000000E+00  0.00000000000E+00 -0.40563843255E+03  0.40563843255E+03  0.00000000000E+00 0. -1.
        6    1    1    2  501    0  0.17355806648E+03  0.28364725255E+03  0.20406739525E+02  0.37539792399E+03  0.17300000000E+03 0. -1.
       -6    1    1    2    0  503 -0.87342689204E+02  0.21922568586E+02  0.97091408123E+03  0.99030929386E+03  0.17300000000E+03 0.  1.
        6    1    1    2  502    0 -0.69396249714E+02 -0.22847005297E+03  0.27351107912E+03  0.40218368314E+03  0.17300000000E+03 0. -1.
       -6    1    1    2    0  504 -0.16819127559E+02 -0.77099768162E+02 -0.95455197864E+02  0.21276266614E+03  0.17300000000E+03 0. -1.
</event>
<event>
 6   0  0.4500850E-05  0.2274057E+03  0.7546771E-02  0.1132324E+00
       21   -1    0    0  504  503  0.00000000000E+00  0.00000000000E+00  0.89118810983E+03  0.89118810983E+03  0.00000000000E+00 0. -1.
       21   -1    0    0  501  504  0.00000000000E+00  0.00000000000E+00 -0.42023309349E+03  0.42023309349E+03  0.00000000000E+00 0. -1.
        6    1    1    2  501    0  0.19876482549E+03  0.11767969988E+03 -0.18268914934E+03  0.34155569517E+03  0.17300000000E+03 0.  1.
       -6    1    1    2    0  503 -0.14285798211E+03  0.22019522119E+01  0.51507807938E+03  0.56182531049E+03  0.17300000000E+03 0. -1.
        6    1    1    2  502    0  0.16984326167E+01 -0.99566435276E+02  0.59781090575E+02  0.20837259536E+03  0.17300000000E+03 0. -1.
       -6    1    1    2    0  502 -0.57605275998E+02 -0.20315216813E+02  0.78784995716E+02  0.19966760230E+03  0.17300000000E+03 0. -1.
</event>
<event>
 6   0  0.4500850E-05  0.6904198E+03  0.7546771E-02  0.9926688E-01
       21   -1    0    0  504  503  0.00000000000E+00  0.00000000000E+00  0.43226735868E+03  0.43226735868E+03  0.00000000000E+00 0. -1.
       21   -1    0    0  501  504  0.00000000000E+00  0.00000000000E+00 -0.19865735324E+04  0.19865735324E+04  0.00000000000E+00 0. -1.
        6    1    1    2  501    0 -0.11019630211E+03  0.32595636858E+03 -0.19055951126E+03  0.42968908126E+03  0.17300000000E+03 0.  1.
       -6    1    1    2    0  502 -0.22133953930E+03  0.96147876008E+02 -0.74485876389E+02  0.30612538526E+03  0.17300000000E+03 0. -1.
        6    1    1    2  502    0  0.14386638654E+03 -0.64602362922E+03 -0.10970308871E+04  0.12928456342E+04  0.17300000000E+03 0. -1.
       -6    1    1    2    0  503  0.18766945487E+03  0.22391938463E+03 -0.19222989901E+03  0.39018079037E+03  0.17300000000E+03 0.  1.
</event>
<event>
 6   0  0.4500850E-05  0.2179342E+03  0.7546771E-02  0.1135738E+00
       21   -1    0    0  502  503  0.00000000000E+00  0.00000000000E+00  0.13980219339E+04  0.13980219339E+04  0.00000000000E+00 0.  1.
       21   -1    0    0  501  504  0.00000000000E+00  0.00000000000E+00 -0.30744464076E+03  0.30744464076E+03  0.00000000000E+00 0. -1.
        6    1    1    2  501    0  0.16071027364E+03  0.72580965368E+02 -0.62779689836E+02  0.25488444057E+03  0.17300000000E+03 0. -1.
       -6    1    1    2    0  503  0.30952318950E+02 -0.25053167987E+02 -0.22461985246E+02  0.17893923006E+03  0.17300000000E+03 0.  1.
        6    1    1    2  502    0  0.41859825257E+02  0.13005375919E+02  0.56482797331E+03  0.59235211167E+03  0.17300000000E+03 0. -1.
       -6    1    1    2    0  504 -0.23352241785E+03 -0.60533173299E+02  0.61099099496E+03  0.67929079239E+03  0.17300000000E+03 0.  1.
</event>
<event>
 6   0  0.4500850E-05  0.2508943E+03  0.7546771E-02  0.1123792E+00
       21   -1    0    0  504  503  0.00000000000E+00  0.00000000000E+00  0.62244284702E+03  0.62244284702E+03  0.00000000000E+00 0. -1.
       21   -1    0    0  502  504  0.00000000000E+00  0.00000000000E+00 -0.11011124735E+04  0.11011124735E+04  0.00000000000E+00 0. -1.
        6    1    1    2  501    0  0.17220948626E+03 -0.13024669607E+03 -0.23350213071E+03  0.36203943714E+03  0.17300000000E+03 0. -1.
       -6    1    1    2    0  501 -0.21099869817E+03 -0.65861184979E+01 -0.19866983735E+03  0.33758337024E+03  0.17300000000E+03 0.  1.
        6    1    1    2  502    0  0.41346581235E+02 -0.27133099365E+02 -0.48914193472E+03  0.52118574152E+03  0.17300000000E+03 0. -1.
       -6    1    1    2    0  503 -0.25573693221E+01  0.16396591393E+03  0.44264427629E+03  0.50274677165E+03  0.17300000000E+03 0. -1.
</event>
<event>
 6   0  0.4500850E-05  0.2028579E+03  0.7546771E-02  0.1151404E+00
       21   -1    0    0  504  503  0.00000000000E+00  0.00000000000E+00  0.19447464327E+04  0.19447464327E+04  0.00000000000E+00 0.  1.
       21   -1    0    0  501  504  0.00000000000E+00  0.00000000000E+00 -0.29157681308E+03  0.29157681308E+03  0.00000000000E+00 0.  1.
        6    1    1    2  501    0 -0.10197028829E+03 -0.26142859768E+02 -0.18674358675E+03  0.27546970070E+03  0.17300000000E+03 0.  1.
       -6    1    1    2    0  503  0.29919247981E+02  0.67846244544E+02  0.65074509363E+03  0.67741896281E+03  0.17300000000E+03 0.  1.
        6    1    1    2  502    0 -0.55071981635E+02 -0.31449701605E+02  0.20315324068E+03  0.27426674259E+03  0.17300000000E+03 0. -1.
       -6    1    1    2    0  502  0.12712302195E+03 -0.10253683171E+02  0.98601487206E+03  0.10091678397E+04  0.17300000000E+03 0.  1.
</event>
<event>
 6   0  0.4500850E-05  0.6548537E+03  0.7546771E-02  0.9919363E-01
       21   -1    0    0  504  503  0.00000000000E+00  0.00000000000E+00  0.73013773459E+03  0.73013773459E+03  0.00000000000E+00 0. -1.
       21   -1    0    0  502  504  0.00000000000E+00  0.00000000000E+00 -0.11287616665E+04  0.11287616665E+04  0.00000000000E+00 0. -1.
        6    1    1    2  501    0 -0.26377547607E+03  0.52746224645E+00  0.60844169243E+02  0.32126125338E+03  0.17300000000E+03 0.  1.
       -6    1    1    2    0  503 -0.16572536333E+03 -0.23385890186E+03  0.23595221628E+02  0.33561974989E+03  0.17300000000E+03 0.  1.
        6    1    1    2  502    0  0.13330721717E+03 -0.33897001612E+03 -0.49412832704E+02  0.40625375569E+03  0.17300000000E+03 0. -1.
       -6    1    1    2    0  501  0.29619362223E+03  0.57230145573E+03 -0.43365049003E+03  0.79576464209E+03  0.17300000000E+03 0. -1.
</event>
<event>
 6   0  0.4500850E-05  0.3270599E+03  0.7546771E-02  0.1088420E+00
       21   -1    0    0  502  503  0.00000000000E+00  0.00000000000E+00  0.14417872221E+03  0.14417872221E+03  0.00000000000E+00 0.  1.
       21   -1    0    0  501  504  0.00000000000E+00  0.00000000000E+00 -0.27367968166E+04  0.27367968166E+04  0.00000000000E+00 0.  1.
        6    1    1    2  501    0 -0.29827217454E+03 -0.14875861269E+03 -0.98614660860E+03  0.10552296189E+04  0.17300000000E+03 0.  1.
       -6    1    1    2    0  503  0.84881781069E+02 -0.16931396876E+03 -0.30686182650E+03  0.39995664432E+03  0.17300000000E+03 0.  1.
        6    1    1    2  502    0  0.80072537339E+02  0.94469193376E+02 -0.23852324549E+03  0.31962224324E+03  0.17300000000E+03 0. -1.
       -6    1    1    2    0  504  0.13331785613E+03  0.22360338807E+03 -0.10610864138E+04  0.11061670324E+04  0.17300000000E+03 0.  1.
</event>
<event>
 6   0  0.4500850E-05  0.2159245E+03  0.7546771E-02  0.1137916E+00
       21   -1    0    0  501  503  0.00000000000E+00  0.00000000000E+00  0.66680961416E+03  0.66680961416E+03  0.00000000000E+00 0. -1.
       21   -1    0    0  503  504  0.00000000000E+00  0.00000000000E+00 -0.65125527348E+03  0.65125527348E+03  0.00000000000E+00 0. -1.
        6    1    1    2  501    0 -0.35156996644E+02 -0.58761024915E+02  0.27382517281E+03  0.33105603412E+03  0.17300000000E+03 0. -1.
       -6    1    1    2    0  502  0.17700672335E+03  0.10139229655E+03  0.19664325028E+03  0.33197792967E+03  0.17300000000E+03 0. -1.
        6    1    1    2  502    0 -0.17037030020E+03 -0.12359596987E+03 -0.21515431721E+03  0.34716333789E+03  0.17300000000E+03 0. -1.
       -6    1    1    2    0  504  0.28520573496E+02  0.80964698235E+02 -0.23975976521E+03  0.30786758596E+03  0.17300000000E+03 0. -1.
</event>
<event>
 6   0  0.4500850E-05  0.2943962E+03  0.7546771E-02  0.1097421E+00
       21   -1    0    0  502  503  0.00000000000E+00  0.00000000000E+00  0.58438114044E+03  0.58438114044E+03  0.00000000000E+00 0. -1.
       21   -1    0    0  501  504  0.00000000000E+00  0.00000000000E+00 -0.69108170383E+03  0.69108170383E+03  0.00000000000E+00 0. -1.
        6    1    1    2  501    0 -0.10569086215E+03 -0.24478906084E+02 -0.23043664188E+03  0.30789579586E+03  0.17300000000E+03 0. -1.
       -6    1    1    2    0  504  0.14053612177E+03 -0.22390467363E+03  0.84415623272E+02  0.32701483429E+03  0.17300000000E+03 0.  1.
        6    1    1    2  502    0 -0.24740507735E+03  0.17574260197E+03 -0.23643940921E+02  0.35011822345E+03  0.17300000000E+03 0.  1.
       -6    1    1    2    0  503  0.21255981774E+03  0.72640977741E+02  0.62964396139E+02  0.29043399068E+03  0.17300000000E+03 0. -1.
</event>
<event>
 6   0  0.4500850E-05  0.2872354E+03  0.7546771E-02  0.1107613E+00
       21   -1    0    0  504  503  0.00000000000E+00  0.00000000000E+00  0.27885161582E+04  0.27885161582E+04  0.00000000000E+00 0.  1.
       21   -1    0    0  502  504  0.00000000000E+00  0.00000000000E+00 -0.20804209582E+03  0.20804209582E+03  0.00000000000E+00 0. -1.
        6    1    1    2  501    0  0.85996496827E+01  0.79361424473E+02  0.13112643382E+04  0.13250340955E+04  0.17300000000E+03 0.  1.
       -6    1    1    2    0  501 -0.13286967582E+03  0.19356627206E+03 -0.34373719678E+01  0.29165573535E+03  0.17300000000E+03 0. -1.
        6    1    1    2  502    0  0.14402215522E+03 -0.15744974906E+03  0.41898403969E+03  0.50100841329E+03  0.17300000000E+03 0.  1.
       -6    1    1    2    0  503 -0.19752129083E+02 -0.11547794748E+03  0.85366305649E+03  0.87886000988E+03  0.17300000000E+03 0.  1.
</event>
<event>
 6   0  0.4500850E-05  0.2382732E+03  0.7546771E-02  0.1121213E+00
       21   -1    0    0  501  503  0.00000000000E+00  0.00000000000E+00  0.51680361998E+03  0.51680361998E+03  0.00000000000E+00 0. -1.
       21   -1    0    0  502  504  0.00000000000E+00  0.00000000000E+00 -0.15347653223E+04  0.15347653223E+04  0.00000000000E+00 0.  1.
        6    1    1    2  501    0 -0.60582669888E+02 -0.50398131818E+02 -0.32666848095E+03  0.37795704521E+03  0.17300000000E+03 0.  1.
       -6    1    1    2    0  503  0.50315750126E+02 -0.56736963698E+02  0.20635783232E+03  0.27975580909E+03  0.17300000000E+03 0. -1.
        6    1    1    2  502    0 -0.19100319249E+03  0.24020348190E+03  0.89120075414E+02  0.36338866259E+03  0.17300000000E+03 0. -1.
       -6    1    1    2    0  504  0.20127011225E+03 -0.13306838638E+03 -0.98677112910E+03  0.10304674254E+04  0.17300000000E+03 0.  1.
</event>
<event>
 6   0  0.4500850E-05  0.2467513E+03  0.7546771E-02  0.1115612E+00
       21   -1    0    0  501  503  0.00000000000E+00  0.00000000000E+00  0.19107431111E+03  0.19107431111E+03  0.00000000000E+00 0. -1.
       21   -1    0    0  503  504  0.00000000000E+00  0.00000000000E+00 -0.21454038505E+04  0.21454038505E+04  0.00000000000E+00 0.  1.
        6    1    1    2  501    0  0.11892325501E+03  0.20756562888E+03 -0.68487362399E+02  0.30306063697E+03  0.17300000000E+03 0. -1.
       -6    1    1    2    0  502 -0.49530445983E+02 -0.65235086719E+02 -0.34891265974E+03  0.39796724205E+03  0.17300000000E+03 0. -1.
        6    1    1    2  502    0 -0.29930873018E+02  0.79820281941E+02 -0.24085486607E+03  0.30855664160E+03  0.17300000000E+03 0. -1.
       -6    1    1    2    0  504 -0.39461936004E+02 -0.22215082411E+03 -0.12960746512E+04  0.13268936410E+04  0.17300000000E+03 0.  1.
</event>
<event>
 6   0  0.4500850E-05  0.2562778E+03  0.7546771E-02  0.1117434E+00
       21   -1    0    0  501  503  0.00000000000E+00  0.00000000000E+00  0.66783093020E+03  0.66783093020E+03  0.00000000000E+00 0.  1.
       21   -1    0    0  502  504  0.00000000000E+00  0.00000000000E+00 -0.43998542870E+03  0.43998542870E+03  0.00000000000E+00 0.  1.
        6    1    1    2  501    0 -0.96194394819E+02 -0.67444569420E+02  0.22312386694E+03  0.30580286385E+03  0.17300000000E+03 0. -1.
       -6    1    1    2    0  503  0.83070064932E+02  0.18759999305E+03  0.51658315803E+02  0.27329832541E+03  0.17300000000E+03 0.  1.
        6    1    1    2  502    0  0.19526203577E+03 -0.70758192720E+02 -0.33197898003E+02  0.27233267318E+03  0.17300000000E+03 0.  1.
       -6    1    1    2    0  504 -0.18213770588E+03 -0.49397230908E+02 -0.13738783247E+02  0.25638249646E+03  0.17300000000E+03 0.  1.
</event>
<event>
 6   0  0.4500850E-05  0.6105410E+03  0.7546771E-02  0.9894705E-01
       21   -1    0    0  501  503  0.00000000000E+00  0.00000000000E+00  0.30070294915E+03  0.30070294915E+03  0.00000000000E+00 0. -1.
       21   -1    0    0  502  504  0.00000000000E+00  0.00000000000E+00 -0.14152225029E+04  0.14152225029E+04  0.00000000000E+00 0. -1.
        6    1    1    2  501    0  0.82258290540E+02 -0.31655294167E+03 -0.53491448376E+03  0.65041117470E+03  0.17300000000E+03 0. -1.
       -6    1    1    2    0  503  0.12739921947E+02  0.24737542862E+03 -0.15956131312E+03  0.34168072954E+03  0.17300000000E+03 0. -1.
        6    1    1    2  502    0 -0.21301488241E+02  0.21892401378E+03 -0.52593997242E+02  0.28473954021E+03  0.17300000000E+03 0. -1.
       -6    1    1    2    0  504 -0.73696724246E+02 -0.14974650073E+03 -0.36744975959E+03  0.43909400755E+03  0.17300000000E+03 0. -1.
</event>
<event>
 6   0  0.4500850E-05  0.6259596E+03  0.7546771E-02  0.1022932E+00
       21   -1    0    0  502  503  0.00000000000E+00  0.00000000000E+00  0.33534112017E+03  0.33534112017E+03  0.00000000000E+00 0. -1.
       21   -1    0    0  501  504  0.00000000000E+00  0.00000000000E+00 -0.16092348841E+04  0.16092348841E+04  0.00000000000E+00 0. -1.
        6    1    1    2  501    0 -0.42371050180E+02 -0.96977663902E+01 -0.32158424878E+03  0.36774281996E+03  0.17300000000E+03 0.  1.
       -6    1    1    2    0  503  0.48870561269E+03 -0.28600546267E+03 -0.41678820267E+03  0.72406747368E+03  0.17300000000E+03 0. -1.
        6    1    1    2  502    0 -0.89752599327E+02  0.85124164179E+02 -0.14061003477E+03  0.25495457300E+03  0.17300000000E+03 0. -1.
       -6    1    1    2    0  504 -0.35658196318E+03  0.21057906488E+03 -0.39491127773E+03  0.59781113766E+03  0.17300000000E+03 0. -1.
</event>
<event>
 6   0  0.4500850E-05  0.2483160E+03  0.7546771E-02  0.1115265E+00
       21   -1    0    0  501  503  0.00000000000E+00  0.00000000000E+00  0.28279053796E+04  0.28279053796E+04  0.00000000000E+00 0. -1.
       21   -1    0    0  502  504  0.00000000000E+00  0.00000000000E+00 -0.34613453934E+03  0.34613453934E+03  0.00000000000E+00 0.  1.
        6    1    1    2  501    0  0.76389070309E+02  0.10627040340E+03 -0.21777979112E+03  0.30738530564E+03  0.17300000000E+03 0.  1.
       -6    1    1    2    0  503 -0.28548088174E+03  0.33843036296E+02  0.17948783161E+04  0.18259687441E+04  0.17300000000E+03 0. -1.
        6    1    1    2  502    0  0.10849484425E+03 -0.21413337530E+03  0.59647897218E+03  0.66583811689E+03  0.17300000000E+03 0.  1.
       -6    1    1    2    0  504  0.10059696718E+03  0.74019935601E+02  0.30819334316E+03  0.37484775235E+03  0.17300000000E+03 0. -1.
</event>
<event>
 6   0  0.4500850E-05  0.3584917E+03  0.7546771E-02  0.1069808E+00
       21   -1    0    0  502  503  0.00000000000E+00  0.00000000000E+00  0.93920408215E+03  0.93920408215E+03  0.00000000000E+00 0. -1.
       21   -1    0    0  501  504  0.00000000000E+00  0.00000000000E+00 -0.77361761410E+03  0.77361761410E+03  0.00000000000E+00 0. -1.
        6    1    1    2  501    0  0.35918644521E+03  0.25127405963E+02 -0.32067203128E+03  0.51225563989E+03  0.17300000000E+03 0. -1.
       -6    1    1    2    0  504  0.59874367236E+01  0.21505420725E+03  0.37943345555E+01  0.27609338715E+03  0.17300000000E+03 0. -1.
        6    1    1    2  502    0 -0.47696681070E+03 -0.23638878682E+03  0.44501693157E+03  0.71508465683E+03  0.17300000000E+03 0. -1.
       -6    1    1    2    0  503  0.11179292877E+03 -0.37928263911E+01  0.37447233190E+02  0.20938801238E+03  0.17300000000E+03 0. -1.
</event>
<event>
 6   0  0.4500850E-05  0.2432137E+03  0.7546771E-02  0.1129553E+00
       21   -1    0    0  504  503  0.00000000000E+00  0.00000000000E+00  0.93566537415E+03  0.93566537415E+03  0.00000000000E+00 0.  1.
       21   -1    0    0  501  504  0.00000000000E+00  0.00000000000E+00 -0.96815690424E+03  0.96815690424E+03  0.00000000000E+00 0.  1.
        6    1    1    2  501    0  0.12288781617E+03  0.15243669487E+03 -0.34295463528E+03  0.43114410951E+03  0.17300000000E+03 0.  1.
       -6    1    1    2    0  503 -0.15912548894E+03 -0.31012046346E+02  0.75397702394E+03  0.79037524055E+03  0.17300000000E+03 0.  1.
        6    1    1    2  502    0 -0.29551090458E+02  0.32776986148E+02 -0.10907743098E+01  0.17854351726E+03  0.17300000000E+03 0.  1.
       -6    1    1    2    0  502  0.65788763225E+02 -0.15420163467E+03 -0.44242314445E+03  0.50375941107E+03  0.17300000000E+03 0. -1.
</event>
<event>
 6   0  0.4500850E-05  0.2815326E+03  0.7546771E-02  0.1095552E+00
       21   -1    0    0  504  503  0.00000000000E+00  0.00000000000E+00  0.52335430407E+03  0.52335430407E+03  0.00000000000E+00 0.  1.
       21   -1    0    0  502  504  0.00000000000E+00  0.00000000000E+00 -0.13940049752E+04  0.13940049752E+04  0.00000000000E+00 0. -1.
        6    1    1    2  501    0  0.21802471794E+03  0.18778812751E+03  0.67268807074E+02  0.34242262027E+03  0.17300000000E+03 0. -1.
       -6    1    1    2    0  503  0.13042850503E+03 -0.86975315229E+02  0.18942281509E+03  0.30064314936E+03  0.17300000000E+03 0.  1.
        6    1    1    2  502    0 -0.20555051501E+03 -0.14626983434E+03 -0.35441800515E+03  0.46817411402E+03  0.17300000000E+03 0. -1.
       -6    1    1    2    0  501 -0.14290270796E+03  0.45457022059E+02 -0.77292428813E+03  0.80611939561E+03  0.17300000000E+03 0. -1.
</event>
<event>
 6   0  0.4500850E-05  0.3156068E+03  0.7546771E-02  0.1087966E+00
       21   -1    0    0  502  503  0.00000000000E+00  0.00000000000E+00  0.15446185036E+04  0.15446185036E+04  0.00000000000E+00 0.  1.
       21   -1    0    0  501  504  0.00000000000E+00  0.00000000000E+00 -0.23634468299E+04  0.23634468299E+04  0.00000000000E+00 0. -1.
        6    1    1    2  501    0  0.19527853719E+03 -0.41542475631E+03  0.26167152868E+03  0.55597879831E+03  0.17300000000E+03 0.  1.
       -6    1    1    2    0  503 -0.20316374109E+02  0.58466605358E+02  0.10630722922E+04  0.10788339990E+04  0.17300000000E+03 0.  1.
        6    1    1    2  502    0 -0.39024963986E+02  0.25769381020E+03 -0.37527902940E+03  0.48856155962E+03  0.17300000000E+03 0.  1.
       -6    1    1    2    0  504 -0.13593719910E+03  0.99264340755E+02 -0.17682931178E+04  0.17846909766E+04  0.17300000000E+03 0. -1.
</event>
<event>
 6   0  0.4500850E-05  0.2060998E+03  0.7546771E-02  0.1146582E+00
       21   -1    0    0  501  503  0.00000000000E+00  0.00000000000E+00  0.48138087706E+03  0.48138087706E+03  0.00000000000E+00 0.  1.
       21   -1    0    0  502  504  0.00000000000E+00  0.00000000000E+00 -0.16305330006E+04  0.16305330006E+04  0.00000000000E+00 0. -1.
        6    1    1    2  501    0  0.43450061919E+02 -0.23087055098E+02  0.35073375829E+03  0.39416251623E+03  0.17300000000E+03 0.  1.
       -6    1    1    2    0  503  0.15242327501E+03  0.40216127649E+02 -0.18841534838E+03  0.30046553079E+03  0.17300000000E+03 0.  1.
        6    1    1    2  502    0 -0.12366211217E+03 -0.45743755350E+02 -0.21968266281E+03  0.30915090406E+03  0.17300000000E+03 0.  1.
       -6    1    1    2    0  504 -0.72211224760E+02  0.28614682799E+02 -0.10917878706E+04  0.11081349266E+04  0.17300000000E+03 0. -1.
</event>
<event>
 6   0  0.4500850E-05  0.3077269E+03  0.7546771E-02  0.1092317E+00
       21   -1    0    0  501  503  0.00000000000E+00  0.00000000000E+00  0.12985534067E+04  0.12985534067E+04  0.00000000000E+00 0.  1.
       21   -1    0    0  502  504  0.00000000000E+00  0.00000000000E+00 -0.10766739759E+04  0.10766739759E+04  0.00000000000E+00 0. -1.
        6    1    1    2  501    0  0.11257613074E+03 -0.24509339098E+02 -0.44929085646E+03  0.49504077268E+03  0.17300000000E+03 0.  1.
       -6    1    1    2    0  503 -0.21233432076E+03  0.82433758581E+02  0.30207973537E+03  0.41600763796E+03  0.17300000000E+03 0. -1.
        6    1    1    2  502    0  0.10753084489E+03 -0.35742679244E+03  0.80717012363E+03  0.90596324596E+03  0.17300000000E+03 0.  1.
       -6    1    1    2    0  504 -0.77726548750E+01  0.29950237295E+03 -0.43807957179E+03  0.55821572603E+03  0.17300000000E+03 0. -1.
</event>
<event>
 6   0  0.4500850E-05  0.2337373E+03  0.7546771E-02  0.1132877E+00
       21   -1    0    0  504  503  0.00000000000E+00  0.00000000000E+00  0.93454647109E+03  0.93454647109E+03  0.00000000000E+00 0.  1.
       21   -1    0    0  501  504  0.00000000000E+00  0.00000000000E+00 -0.97267418376E+03  0.97267418376E+03  0.00000000000E+00 0. -1.
        6    1    1    2  501    0 -0.26638662029E+02  0.12919868280E+03 -0.54720672920E+03  0.58886851031E+03  0.17300000000E+03 0. -1.
       -6    1    1    2    0  502 -0.69233848603E+02 -0.24994110454E+02 -0.22968486926E+03  0.29682009790E+03  0.17300000000E+03 0. -1.
        6    1    1    2  502    0  0.12700268068E+03 -0.24144077723E+03  0.89748061571E+02  0.33527159791E+03  0.17300000000E+03 0.  1.
       -6    1    1    2    0  503 -0.31130170048E+02  0.13723620488E+03  0.64901582421E+03  0.68626044873E+03  0.17300000000E+03 0.  1.
</event>
<event>
 6   0  0.4500850E-05  0.3430798E+03  0.7546771E-02  0.1075312E+00
       21   -1    0    0  502  503  0.00000000000E+00  0.00000000000E+00  0.18395249089E+04  0.18395249089E+04  0.00000000000E+00 0. -1.
       21   -1    0    0  501  504  0.00000000000E+00  0.00000000000E+00 -0.33503264844E+03  0.33503264844E+03  0.00000000000E+00 0.  1.
        6    1    1    2  501    0  0.21595566400E+03 -0.22936503940E+03  0.26361031861E+03  0.44571803889E+03  0.17300000000E+03 0. -1.
       -6    1    1    2    0  503  0.33873118923E+02  0.17334427226E+03  0.59403828302E+03  0.64343306304E+03  0.17300000000E+03 0. -1.
        6    1    1    2  502    0 -0.11391772909E+03  0.38019783813E+03  0.16251793139E+03  0.46245942865E+03  0.17300000000E+03 0.  1.
       -6    1    1    2    0  504 -0.13591105384E+03 -0.32417707099E+03  0.48432572748E+03  0.62294702681E+03  0.17300000000E+03 0.  1.
</event>
<event>
 6   0  0.4500850E-05  0.4862231E+03  0.7546771E-02  0.1039697E+00
       21   -1    0    0  502  503  0.00000000000E+00  0.00000000000E+00  0.27275750345E+03  0.27275750345E+03  0.00000000000E+00 0. -1.
       21   -1    0    0  501  504  0.00000000000E+00  0.00000000000E+00 -0.15871640339E+04  0.15871640339E+04  0.00000000000E+00 0. -1.
        6    1    1    2  501    0 -0.12639252685E+03 -0.15223090836E+02 -0.51420699111E+03  0.55726532553E+03  0.17300000000E+03 0. -1.
       -6    1    1    2    0  504  0.22293431335E+03  0.11231401423E+03 -0.27608749740E+02  0.30496784900E+03  0.17300000000E+03 0.  1.
        6    1    1    2  502    0  0.14641605177E+03 -0.10715040412E+03 -0.11553464909E+03  0.27603645495E+03  0.17300000000E+03 0. -1.
       -6    1    1    2    0  503 -0.24295783827E+03  0.10059480734E+02 -0.65705614048E+03  0.72165190783E+03  0.17300000000E+03 0. -1.
</event>
<event>
 6   0  0.4500850E-05  0.3896341E+03  0.7546771E-02  0.1054037E+00
       21   -1    0    0  502  503  0.00000000000E+00  0.00000000000E+00  0.11081981984E+04  0.11081981984E+04  0.00000000000E+00 0. -1.
       21   -1    0    0  501  504  0.00000000000E+00  0.00000000000E+00 -0.74966421861E+03  0.74966421861E+03  0.00000000000E+00 0. -1.
        6    1    1    2  501    0  0.31571819945E+03 -0.28780925322E+03  0.32551591433E+02  0.46206141779E+03  0.17300000000E+03 0. -1.
       -6    1    1    2    0  504  0.32870949199E+03 -0.34717492624E+02  0.32368723669E+03  0.49392070377E+03  0.17300000000E+03 0. -1.
        6    1    1    2  502    0 -0.42989569587E+03  0.26525095870E+03  0.18638751176E+03  0.56554193917E+03  0.17300000000E+03 0. -1.
       -6    1    1    2    0  503 -0.21453199557E+03  0.57275787145E+02 -0.18409236005E+03  0.33633835634E+03  0.17300000000E+03 0.  1.
</event>
<event>
 6   0  0.4500850E-05  0.3233838E+03  0.7546771E-02  0.1080363E+00
       21   -1    0    0  502  503  0.00000000000E+00  0.00000000000E+00  0.15637612910E+04  0.15637612910E+04  0.00000000000E+00 0. -1.
       21   -1    0    0  501  504  0.00000000000E+00  0.00000000000E+00 -0.60053675119E+03  0.60053675119E+03  0.00000000000E+00 0. -1.
        6    1    1    2  501    0 -0.17717036013E+03 -0.36269432670E+03  0.13985203870E+03  0.46089489459E+03  0.17300000000E+03 0. -1.
       -6    1    1    2    0  504  0.10849803599E+03 -0.60069932723E+02 -0.23611496882E+03  0.31789856737E+03  0.17300000000E+03 0. -1.
        6    1    1    2  502    0  0.16887353780E+03  0.22174903505E+03  0.10519296867E+04  0.11018965342E+04  0.17300000000E+03 0. -1.
       -6    1    1    2    0  503 -0.10020121367E+03  0.20101522438E+03  0.75577831733E+01  0.28360804597E+03  0.17300000000E+03 0. -1.
</event>
<event>
 6   0  0.4500850E-05  0.2060408E+03  0.7546771E-02  0.1145102E+00
       21   -1    0    0  501  503  0.00000000000E+00  0.00000000000E+00  0.13859320340E+04  0.13859320340E+04  0.00000000000E+00 0.  1.
       21   -1    0    0  503  504  0.00000000000E+00  0.00000000000E+00 -0.18246772624E+03  0.18246772624E+03  0.00000000000E+00 0. -1.
        6    1    1    2  501    0 -0.95103348554E+02 -0.11504524949E+03  0.46808717493E+03  0.52087873797E+03  0.17300000000E+03 0.  1.
       -6    1    1    2    0  504 -0.73042918889E+02 -0.37657106782E+02  0.15606667702E+03  0.24706099119E+03  0.17300000000E+03 0.  1.
        6    1    1    2  502    0  0.80641832142E+02  0.15409721037E+03  0.69406316509E+02  0.25494174258E+03  0.17300000000E+03 0. -1.
       -6    1    1    2    0  502  0.87504435301E+02 -0.13948541018E+01  0.50990413929E+03  0.54551828850E+03  0.17300000000E+03 0.  1.
</event>
<event>
 6   0  0.4500850E-05  0.4866405E+03  0.7546771E-02  0.1051517E+00
       21   -1    0    0  501  503  0.00000000000E+00  0.00000000000E+00  0.14051788274E+04  0.14051788274E+04  0.00000000000E+00 0.  1.
       21   -1    0    0  503  504  0.00000000000E+00  0.00000000000E+00 -0.38658885030E+03  0.38658885030E+03  0.00000000000E+00 0. -1.
        6    1    1    2  501    0 -0.27307357279E+02  0.31486709610E+02  0.12885977677E+03  0.21970650130E+03  0.17300000000E+03 0.  1.
       -6    1    1    2    0  504  0.23720043358E+03  0.33864354321E+03  0.12581015143E+03  0.46551121281E+03  0.17300000000E+03 0.  1.
        6    1    1    2  502    0 -0.32024322009E+03 -0.45043765757E+03  0.57855480518E+03  0.81859908745E+03  0.17300000000E+03 0. -1.
       -6    1    1    2    0  502  0.11035014380E+03  0.80307404745E+02  0.18536524373E+03  0.28795087615E+03  0.17300000000E+03 0.  1.
</event>
<event>
 6   0  0.4500850E-05  0.2931723E+03  0.7546771E-02  0.1094193E+00
       21   -1    0    0  504  503  0.00000000000E+00  0.00000000000E+00  0.15126756611E+04  0.15126756611E+04  0.00000000000E+00 0.  1.
       21   -1    0    0  502  504  0.00000000000E+00  0.00000000000E+00 -0.33136636411E+03  0.33136636411E+03  0.00000000000E+00 0. -1.
        6    1    1    2  501    0  0.14032803218E+02  0.87894010459E+01  0.37908000425E+02  0.17787689460E+03  0.17300000000E+03 0.  1.
       -6    1    1    2    0  503  0.80378253189E+02 -0.43928490518E+03  0.69161950617E+03  0.84124813986E+03  0.17300000000E+03 0.  1.
        6    1    1    2  502    0 -0.15307924371E+02  0.36522552710E+03  0.95106671159E+02  0.41544951209E+03  0.17300000000E+03 0. -1.
       -6    1    1    2    0  501 -0.79103132036E+02  0.65269977034E+02  0.35667511928E+03  0.40946747870E+03  0.17300000000E+03 0.  1.
</event>
<event>
 6   0  0.4500850E-05  0.4642123E+03  0.7546771E-02  0.1043931E+00
       21   -1    0    0  502  503  0.00000000000E+00  0.00000000000E+00  0.22663561364E+04  0.22663561364E+04  0.00000000000E+00 0. -1.
       21   -1    0    0  501  504  0.00000000000E+00  0.00000000000E+00 -0.22803826392E+03  0.22803826392E+03  0.00000000000E+00 0.  1.
        6    1    1    2  501    0 -0.87995230994E+02 -0.22883679070E+02  0.86967311296E+03  0.89136252269E+03  0.17300000000E+03 0. -1.
       -6    1    1    2    0  504  0.38752860956E+03 -0.37819897860E+02  0.20536121059E+03  0.47298096655E+03  0.17300000000E+03 0.  1.
        6    1    1    2  502    0 -0.13162514530E+03  0.13291164814E+03  0.19283003757E+03  0.31953577025E+03  0.17300000000E+03 0. -1.
       -6    1    1    2    0  503 -0.16790823328E+03 -0.72208071206E+02  0.77045351134E+03  0.81051514081E+03  0.17300000000E+03 0. -1.
</event>
<event>
 6   0  0.4500850E-05  0.3766633E+03  0.7546771E-02  0.1073823E+00
       21   -1    0    0  504  503  0.00000000000E+00  0.00000000000E+00  0.12632236553E+04  0.12632236553E+04  0.00000000000E+00 0. -1.
       21   -1    0    0  502  504  0.00000000000E+00  0.00000000000E+00 -0.14562321240E+04  0.14562321240E+04  0.00000000000E+00 0. -1.
        6    1    1    2  501    0 -0.12126241105E+03 -0.31793129301E+03  0.48608506698E+03  0.61805547627E+03  0.17300000000E+03 0. -1.
       -6    1    1    2    0  503  0.31358361008E+02 -0.66592367110E+02  0.31795658969E+03  0.36938229937E+03  0.17300000000E+03 0. -1.
        6    1    1    2  502    0  0.39323366718E+03  0.31381649952E+03 -0.12065973920E+04  0.13186810755E+04  0.17300000000E+03 0. -1.
       -6    1    1    2    0  501 -0.30332961713E+03  0.70707160604E+02  0.20954726664E+03  0.41333692812E+03  0.17300000000E+03 0.  1.
</event>
<event>
 6   0  0.4500850E-05  0.2417662E+03  0.7546771E-02  0.1129038E+00
       21   -1    0    0  502  503  0.00000000000E+00  0.00000000000E+00  0.96462477776E+03  0.96462477776E+03  0.00000000000E+00 0.  1.
       21   -1    0    0  501  504  0.00000000000E+00  0.00000000000E+00 -0.63046168256E+03  0.63046168256E+03  0.00000000000E+00 0. -1.
        6    1    1    2  501    0  0.21011610376E+03  0.59281043313E+02  0.27730903234E+03  0.39305510882E+03  0.17300000000E+03 0. -1.
       -6    1    1    2    0  503  0.34139906843E+02  0.45469731308E+02 -0.81038474142E+02  0.19932201082E+03  0.17300000000E+03 0. -1.
        6    1    1    2  502    0 -0.13221391705E+03  0.90859496616E+02  0.49380647548E+03  0.54727488816E+03  0.17300000000E+03 0.  1.
       -6    1    1    2    0  504 -0.11204209355E+03 -0.19561027124E+03 -0.35591393847E+03  0.45543445252E+03  0.17300000000E+03 0.  1.
</event>
<event>
 6   0  0.4500850E-05  0.4272227E+03  0.7546771E-02  0.1050839E+00
       21   -1    0    0  502  503  0.00000000000E+00  0.00000000000E+00  0.11686800631E+04  0.11686800631E+04  0.00000000000E+00 0.  1.
       21   -1    0    0  501  504  0.00000000000E+00  0.00000000000E+00 -0.13369565680E+04  0.13369565680E+04  0.00000000000E+00 0.  1.
        6    1    1    2  501    0 -0.13034565269E+03 -0.89834475713E+02  0.86026660293E+03  0.89165455773E+03  0.17300000000E+03 0.  1.
       -6    1    1    2    0  504  0.34531351702E+03  0.25926910717E+02 -0.11163948437E+04  0.11816006418E+04  0.17300000000E+03 0.  1.
        6    1    1    2  502    0 -0.13485260517E+03  0.28591596780E+02  0.89122520027E+02  0.23848381099E+03  0.17300000000E+03 0.  1.
       -6    1    1    2    0  503 -0.80115259154E+02  0.35315968215E+02 -0.12707841318E+01  0.19389762054E+03  0.17300000000E+03 0.  1.
</event>
<event>
 6   0  0.4500850E-05  0.4794243E+03  0.7546771E-02  0.1020092E+00
        1   -1    0    0  503    0  0.00000000000E+00  0.00000000000E+00  0.80775313359E+03  0.80775313359E+03  0.00000000000E+00 0.  1.
       -1   -1    0    0    0  501  0.00000000000E+00  0.00000000000E+00 -0.27849969901E+03  0.27849969901E+03  0.00000000000E+00 0. -1.
        6    1    1    2  502    0 -0.67686548129E+02  0.61140476255E+02  0.99427546640E+02  0.21939567832E+03  0.17300000000E+03 0.  1.
       -6    1    1    2    0  502  0.84906374181E+02  0.19036662966E+03  0.18936164980E+03  0.33050776161E+03  0.17300000000E+03 0. -1.
        6    1    1    2  503    0 -0.17395029787E+02 -0.19657965328E+03  0.23880986943E+03  0.35483136964E+03  0.17300000000E+03 0.  1.
       -6    1    1    2    0  501  0.17520373502E+00 -0.54927452640E+02  0.16543687068E+01  0.18151802303E+03  0.17300000000E+03 0. -1.
</event>
<event>
 6   0  0.4500850E-05  0.2400560E+03  0.7546771E-02  0.1126995E+00
       21   -1    0    0  501  503  0.00000000000E+00  0.00000000000E+00  0.42283781820E+03  0.42283781820E+03  0.00000000000E+00 0.  1.
       21   -1    0    0  502  504  0.00000000000E+00  0.00000000000E+00 -0.83723089280E+03  0.83723089280E+03  0.00000000000E+00 0.  1.
        6    1    1    2  501    0  0.72706759137E+02 -0.13182335775E+03 -0.15520256151E+03  0.27691245110E+03  0.17300000000E+03 0.  1.
       -6    1    1    2    0  504 -0.13584566772E+03 -0.12090160929E+03 -0.37555879681E+03  0.45171302220E+03  0.17300000000E+03 0.  1.
        6    1    1    2  502    0  0.60402469147E+01  0.16894357917E+03 -0.76027392049E+02  0.25354995931E+03  0.17300000000E+03 0.  1.
       -6    1    1    2    0  503  0.57098661664E+02  0.83781387867E+02  0.19239567578E+03  0.27789327839E+03  0.17300000000E+03 0. -1.
</event>
<event>
 6   0  0.4500850E-05  0.2460432E+03  0.7546771E-02  0.1125371E+00
       21   -1    0    0  504  503  0.00000000000E+00  0.00000000000E+00  0.67774297237E+03  0.67774297237E+03  0.00000000000E+00 0.  1.
       21   -1    0    0  502  504  0.00000000000E+00  0.00000000000E+00 -0.14208521896E+04  0.14208521896E+04  0.00000000000E+00 0.  1.
        6    1    1    2  501    0 -0.14174443996E+03 -0.68944306658E+01  0.19275071730E+03  0.29533177692E+03  0.17300000000E+03 0. -1.
       -6    1    1    2    0  503  0.60599756395E+02  0.63119171165E+02  0.35973330860E+03  0.40864827610E+03  0.17300000000E+03 0.  1.
        6    1    1    2  502    0 -0.86428502383E+02 -0.15118187884E+03 -0.77931905429E+03  0.81706366637E+03  0.17300000000E+03 0.  1.
       -6    1    1    2    0  501  0.16757318595E+03  0.94957138340E+02 -0.51627418884E+03  0.57755144259E+03  0.17300000000E+03 0. -1.
</event>
<event>
 6   0  0.4500850E-05  0.4311006E+03  0.7546771E-02  0.1059666E+00
       21   -1    0    0  502  503  0.00000000000E+00  0.00000000000E+00  0.36036399560E+03  0.36036399560E+03  0.00000000000E+00 0.  1.
       21   -1    0    0  503  504  0.00000000000E+00  0.00000000000E+00 -0.99526007370E+03  0.99526007370E+03  0.00000000000E+00 0.  1.
        6    1    1    2  501    0  0.11960343501E+03  0.90918981662E+02 -0.52983361903E+03  0.57725549520E+03  0.17300000000E+03 0.  1.
       -6    1    1    2    0  504  0.78440497338E+02  0.44203221611E+02 -0.23120572150E+03  0.30247631656E+03  0.17300000000E+03 0.  1.
        6    1    1    2  502    0 -0.10690358591E+03  0.22223493294E+01 -0.47574889738E+01  0.20343291085E+03  0.17300000000E+03 0. -1.
       -6    1    1    2    0  501 -0.91140346435E+02 -0.13734455260E+03  0.13090075140E+03  0.27245934668E+03  0.17300000000E+03 0.  1.
</event>
<event>
 6   0  0.4500850E-05  0.2066818E+03  0.7546771E-02  0.1146020E+00
       21   -1    0    0  501  503  0.00000000000E+00  0.00000000000E+00  0.42890371963E+03  0.42890371963E+03  0.00000000000E+00 0. -1.
       21   -1    0    0  502  504  0.00000000000E+00  0.00000000000E+00 -0.51826991198E+03  0.51826991198E+03  0.00000000000E+00 0.  1.
        6    1    1    2  501    0 -0.11747644844E+03  0.11609253348E+03 -0.14856232691E+03  0.28156341603E+03  0.17300000000E+03 0. -1.
       -6    1    1    2    0  504 -0.30352832095E+02 -0.78410896407E+02 -0.12119463465E+03  0.22734709710E+03  0.17300000000E+03 0.  1.
        6    1    1    2  502    0  0.11303694733E+03  0.29848822521E+02  0.74649800002E+02  0.22174286078E+03  0.17300000000E+03 0. -1.
       -6    1    1    2    0  503  0.34792333202E+02 -0.67530459596E+02  0.10574096921E+03  0.21652025770E+03  0.17300000000E+03 0. -1.
</event>
<event>
 6   0  0.4500850E-05  0.2169963E+03  0.7546771E-02  0.1136957E+00
       21   -1    0    0  501  503  0.00000000000E+00  0.00000000000E+00  0.14439782959E+04  0.14439782959E+04  0.00000000000E+00 0. -1.
       21   -1    0    0  502  504  0.00000000000E+00  0.00000000000E+00 -0.48209402215E+03  0.48209402215E+03  0.00000000000E+00 0. -1.
        6    1    1    2  501    0 -0.16160083548E+03 -0.73168278318E+02  0.58465290256E+03  0.63499326253E+03  0.17300000000E+03 0. -1.
       -6    1    1    2    0  503  0.21313094821E+03  0.34400454923E+02  0.32702694434E+03  0.42835010763E+03  0.17300000000E+03 0. -1.
        6    1    1    2  502    0 -0.20833355285E+02  0.41731991388E+02 -0.36789130460E+03  0.40920483843E+03  0.17300000000E+03 0. -1.
       -6    1    1    2    0  504 -0.30696757444E+02 -0.29641679930E+01  0.41809573147E+03  0.45352410949E+03  0.17300000000E+03 0.  1.
</event>
<event>
 6   0  0.4500850E-05  0.2084230E+03  0.7546771E-02  0.1142921E+00
       21   -1    0    0  501  503  0.00000000000E+00  0.00000000000E+00  0.14633966285E+04  0.14633966285E+04  0.00000000000E+00 0.  1.
       21   -1    0    0  502  504  0.00000000000E+00  0.00000000000E+00 -0.44694570849E+03  0.44694570849E+03  0.00000000000E+00 0. -1.
        6    1    1    2  501    0  0.15059484291E+03  0.82663320462E+01 -0.29119240608E+03  0.37076833241E+03  0.17300000000E+03 0. -1.
       -6    1    1    2    0  504  0.20194006463E+02  0.43689807531E+02  0.99202680099E+01  0.17984440190E+03  0.17300000000E+03 0. -1.
        6    1    1    2  502    0 -0.14567816290E+03 -0.18116479715E+02  0.77364096225E+03  0.80622557170E+03  0.17300000000E+03 0.  1.
       -6    1    1    2    0  503 -0.25110686474E+02 -0.33839659862E+02  0.52408209579E+03  0.55350403095E+03  0.17300000000E+03 0.  1.
</event>
<event>
 6   0  0.4500850E-05  0.2938868E+03  0.7546771E-02  0.1102481E+00
       21   -1    0    0  502  503  0.00000000000E+00  0.00000000000E+00  0.28851722990E+03  0.28851722990E+03  0.00000000000E+00 0. -1.
       21   -1    0    0  501  504  0.00000000000E+00  0.00000000000E+00 -0.28417069564E+04  0.28417069564E+04  0.00000000000E+00 0. -1.
        6    1    1    2  501    0  0.36147256812E+03 -0.66283850957E+02 -0.70948369550E+03  0.81752803046E+03  0.17300000000E+03 0. -1.
       -6    1    1    2    0  503 -0.30563750428E+02  0.23123699103E+02  0.16188320389E+03  0.24000837486E+03  0.17300000000E+03 0. -1.
        6    1    1    2  502    0 -0.14225096508E+03  0.11205832328E+03 -0.79932021635E+03  0.83763608634E+03  0.17300000000E+03 0. -1.
       -6    1    1    2    0  504 -0.18865785261E+03 -0.68898171427E+02 -0.12062690185E+04  0.12350516946E+04  0.17300000000E+03 0. -1.
</event>
<event>
 6   0  0.4500850E-05  0.3039361E+03  0.7546771E-02  0.1095520E+00
       21   -1    0    0  502  503  0.00000000000E+00  0.00000000000E+00  0.10979680353E+04  0.10979680353E+04  0.00000000000E+00 0. -1.
       21   -1    0    0  501  504  0.00000000000E+00  0.00000000000E+00 -0.78977509277E+03  0.78977509277E+03  0.00000000000E+00 0.  1.
        6    1    1    2  501    0  0.18904186596E+03 -0.14052980100E+03  0.28631878280E+03  0.40913677107E+03  0.17300000000E+03 0. -1.
       -6    1    1    2    0  503  0.28705539086E+02  0.32793492913E+03 -0.51604247502E+03  0.63607716650E+03  0.17300000000E+03 0.  1.
        6    1    1    2  502    0 -0.30273760776E+02  0.76278571199E+02  0.41254337137E+03  0.45481419753E+03  0.17300000000E+03 0. -1.
       -6    1    1    2    0  504 -0.18747364427E+03 -0.26368369933E+03  0.12537326336E+03  0.38771499294E+03  0.17300000000E+03 0.  1.
</event>
<event>
 6   0  0.4500850E-05  0.3127735E+03  0.7546771E-02  0.1081502E+00
       21   -1    0    0  502  503  0.00000000000E+00  0.00000000000E+00  0.14182742704E+04  0.14182742704E+04  0.00000000000E+00 0.  1.
       21   -1    0    0  501  504  0.00000000000E+00  0.00000000000E+00 -0.79221979783E+03  0.79221979783E+03  0.00000000000E+00 0.  1.
        6    1    1    2  501    0  0.45696011434E+03  0.27684557190E+03  0.53167312484E+03  0.77334424964E+03  0.17300000000E+03 0.  1.
       -6    1    1    2    0  503 -0.20581613625E+03 -0.18931811765E+03 -0.30772171252E+03  0.45035906116E+03  0.17300000000E+03 0. -1.
        6    1    1    2  502    0 -0.11979731828E+03 -0.91843239594E+02  0.63083970873E+03  0.67132281075E+03  0.17300000000E+03 0.  1.
       -6    1    1    2    0  504 -0.13134665981E+03  0.43157853421E+01 -0.22873664846E+03  0.31546794670E+03  0.17300000000E+03 0.  1.
</event>
<event>
 6   0  0.4500850E-05  0.2904585E+03  0.7546771E-02  0.1108798E+00
       21   -1    0    0  501  503  0.00000000000E+00  0.00000000000E+00  0.12326142308E+04  0.12326142308E+04  0.00000000000E+00 0.  1.
       21   -1    0    0  503  504  0.00000000000E+00  0.00000000000E+00 -0.47089368368E+03  0.47089368368E+03  0.00000000000E+00 0.  1.
        6    1    1    2  501    0  0.27267596193E+03 -0.66951456166E+02  0.18223496592E+03  0.37679339233E+03  0.17300000000E+03 0.  1.
       -6    1    1    2    0  502 -0.20640415764E+03 -0.11329076378E+03  0.58317993388E+03  0.65227701840E+03  0.17300000000E+03 0. -1.
        6    1    1    2  502    0 -0.43788675331E+02  0.21923067362E+03  0.24095437480E+03  0.37143982969E+03  0.17300000000E+03 0. -1.
       -6    1    1    2    0  504 -0.22483128965E+02 -0.38988453675E+02 -0.24464872750E+03  0.30299767404E+03  0.17300000000E+03 0.  1.
</event>
<event>
 6   0  0.4500850E-05  0.2641510E+03  0.7546771E-02  0.1113470E+00
       21   -1    0    0  501  503  0.00000000000E+00  0.00000000000E+00  0.96622753455E+03  0.96622753455E+03  0.00000000000E+00 0.  1.
       21   -1    0    0  502  504  0.00000000000E+00  0.00000000000E+00 -0.48009721691E+03  0.48009721691E+03  0.00000000000E+00 0. -1.
        6    1    1    2  501    0 -0.23803269875E+03 -0.21205453827E+03  0.13381666267E+03  0.38660392146E+03  0.17300000000E+03 0. -1.
       -6    1    1    2    0  504 -0.11814312382E+02  0.16568527518E+02 -0.23019659709E+03  0.28867554000E+03  0.17300000000E+03 0. -1.
        6    1    1    2  502    0  0.20840909767E+03  0.71353534197E+02  0.25867585546E+03  0.38127139551E+03  0.17300000000E+03 0.  1.
       -6    1    1    2    0  503  0.41437913460E+02  0.12413247655E+03  0.32383439660E+03  0.38977389449E+03  0.17300000000E+03 0.  1.
</event>
<event>
 6   0  0.4500850E-05  0.4726114E+03  0.7546771E-02  0.1031193E+00
       21   -1    0    0  502  503  0.00000000000E+00  0.00000000000E+00  0.25102243078E+04  0.25102243078E+04  0.00000000000E+00 0. -1.
       21   -1    0    0  501  504  0.00000000000E+00  0.00000000000E+00 -0.19206391673E+03  0.19206391673E+03  0.00000000000E+00 0.  1.
        6    1    1    2  501    0  0.79052576403E+02  0.18325728995E+03  0.26460358436E+03  0.37386709004E+03  0.17300000000E+03 0.  1.
       -6    1    1    2    0  503  0.67552646090E+02  0.26816623725E+03  0.69453142712E+03  0.76731961662E+03  0.17300000000E+03 0.  1.
        6    1    1    2  502    0 -0.22250559333E+03 -0.11517665988E+03  0.95578746633E+03  0.10031117001E+04  0.17300000000E+03 0. -1.
       -6    1    1    2    0  504  0.75900370836E+02 -0.33624686732E+03  0.40323791327E+03  0.55798981781E+03  0.17300000000E+03 0. -1.
</event>
<event>
 6   0  0.4500850E-05  0.2713103E+03  0.7546771E-02  0.1107413E+00
       21   -1    0    0  501  503  0.00000000000E+00  0.00000000000E+00  0.35752088088E+03  0.35752088088E+03  0.00000000000E+00 0.  1.
       21   -1    0    0  502  504  0.00000000000E+00  0.00000000000E+00 -0.28989180864E+04  0.28989180864E+04  0.00000000000E+00 0.  1.
        6    1    1    2  501    0 -0.37709722271E+02 -0.75058278788E+02  0.20557667274E+03  0.28150761401E+03  0.17300000000E+03 0.  1.
       -6    1    1    2    0  503 -0.73969380667E+02 -0.12504411171E+03 -0.16451268102E+04  0.16605657833E+04  0.17300000000E+03 0.  1.
        6    1    1    2  502    0 -0.13237280923E+03  0.29763795247E+03 -0.78751640907E+03  0.86961026094E+03  0.17300000000E+03 0. -1.
       -6    1    1    2    0  504  0.24405191217E+03 -0.97535561970E+02 -0.31433065894E+03  0.44475530894E+03  0.17300000000E+03 0.  1.
</event>
<event>
 6   0  0.4500850E-05  0.5117617E+03  0.7546771E-02  0.1024664E+00
       21   -1    0    0  502  503  0.00000000000E+00  0.00000000000E+00  0.81535717797E+03  0.81535717797E+03  0.00000000000E+00 0. -1.
       21   -1    0    0  501  504  0.00000000000E+00  0.00000000000E+00 -0.79862660092E+03  0.79862660092E+03  0.00000000000E+00 0. -1.
        6    1    1    2  501    0  0.60000968214E+02  0.16853621570E+03 -0.21858577242E+03  0.33122999878E+03  0.17300000000E+03 0.  1.
       -6    1    1    2    0  504 -0.25098908494E+03 -0.13950196538E+03  0.42097677466E+03  0.53815124631E+03  0.17300000000E+03 0. -1.
        6    1    1    2  502    0  0.24685296492E+03 -0.25642459029E+03  0.64448721045E+01  0.39580360429E+03  0.17300000000E+03 0. -1.
       -6    1    1    2    0  503 -0.55864848193E+02  0.22739033996E+03 -0.19210529730E+03  0.34879892950E+03  0.17300000000E+03 0. -1.
</event>
<event>
 6   0  0.4500850E-05  0.2356790E+03  0.7546771E-02  0.1124591E+00
       21   -1    0    0  504  503  0.00000000000E+00  0.00000000000E+00  0.16680911787E+04  0.16680911787E+04  0.00000000000E+00 0. -1.
       21   -1    0    0  502  504  0.00000000000E+00  0.00000000000E+00 -0.46444526642E+03  0.46444526642E+03  0.00000000000E+00 0. -1.
        6    1    1    2  501    0 -0.29913743859E+03  0.77876965428E+02  0.74468685718E+03  0.82464267666E+03  0.17300000000E+03 0. -1.
       -6    1    1    2    0  503  0.94479076525E+02 -0.24568348064E+02  0.72910540517E+03  0.75568087939E+03  0.17300000000E+03 0. -1.
        6    1    1    2  502    0  0.12456816443E+03 -0.61494558859E+02 -0.28458156762E+03  0.36085243104E+03  0.17300000000E+03 0. -1.
       -6    1    1    2    0  501  0.80090197636E+02  0.81859414946E+01  0.14435217571E+02  0.19136045804E+03  0.17300000000E+03 0.  1.
</event>
<event>
 6   0  0.4500850E-05  0.2707805E+03  0.7546771E-02  0.1101501E+00
       21   -1    0    0  504  503  0.00000000000E+00  0.00000000000E+00  0.53265461224E+03  0.53265461224E+03  0.00000000000E+00 0.  1.
       21   -1    0    0  502  504  0.00000000000E+00  0.00000000000E+00 -0.95589826906E+03  0.95589826906E+03  0.00000000000E+00 0. -1.
        6    1    1    2  501    0  0.14285227825E+03  0.33499610961E+02  0.48303917463E+02  0.23192944138E+03  0.17300000000E+03 0.  1.
       -6    1    1    2    0  503 -0.16039212944E+00  0.32596515934E+03  0.24995916376E+02  0.36987444716E+03  0.17300000000E+03 0. -1.
        6    1    1    2  502    0 -0.10464973335E+03 -0.43729905235E+02  0.66559967350E+02  0.21730876779E+03  0.17300000000E+03 0.  1.
       -6    1    1    2    0  501 -0.38042152765E+02 -0.31573486506E+03 -0.56310345801E+03  0.66944022498E+03  0.17300000000E+03 0. -1.
</event>
<event>
 6   0  0.4500850E-05  0.2465161E+03  0.7546771E-02  0.1124604E+00
       21   -1    0    0  502  503  0.00000000000E+00  0.00000000000E+00  0.63003025392E+03  0.63003025392E+03  0.00000000000E+00 0. -1.
       21   -1    0    0  501  504  0.00000000000E+00  0.00000000000E+00 -0.71998890226E+03  0.71998890226E+03  0.00000000000E+00 0. -1.
        6    1    1    2  501    0  0.11527715315E+03 -0.27996616032E+03 -0.43287898326E+03  0.55586247139E+03  0.17300000000E+03 0. -1.
       -6    1    1    2    0  504 -0.32770413733E+02  0.31839119179E+02  0.17345763520E+03  0.24920710411E+03  0.17300000000E+03 0. -1.
        6    1    1    2  502    0  0.69847499266E+01  0.17490397526E+03 -0.40412973520E+02  0.24940408121E+03  0.17300000000E+03 0. -1.
       -6    1    1    2    0  503 -0.89491489339E+02  0.73223065873E+02  0.20987567324E+03  0.29554549947E+03  0.17300000000E+03 0. -1.
</event>
<event>
 6   0  0.4500850E-05  0.2392216E+03  0.7546771E-02  0.1126523E+00
       21   -1    0    0  502  503  0.00000000000E+00  0.00000000000E+00  0.36154894547E+03  0.36154894547E+03  0.00000000000E+00 0.  1.
       21   -1    0    0  501  504  0.00000000000E+00  0.00000000000E+00 -0.96306462063E+03  0.96306462063E+03  0.00000000000E+00 0. -1.
        6    1    1    2  501    0 -0.58700178383E+02  0.21442516571E+03  0.12721050861E+03  0.30908797475E+03  0.17300000000E+03 0.  1.
       -6    1    1    2    0  503  0.42546878497E+01  0.73439636088E+02 -0.13755261822E+03  0.23294034708E+03  0.17300000000E+03 0.  1.
        6    1    1    2  502    0 -0.72098094375E+02 -0.21574380567E+03 -0.30745692432E+03  0.41976455926E+03  0.17300000000E+03 0. -1.
       -6    1    1    2    0  504  0.12654358491E+03 -0.72120996127E+02 -0.28371664122E+03  0.36282068501E+03  0.17300000000E+03 0.  1.
</event>
<event>
 6   0  0.4500850E-05  0.2086664E+03  0.7546771E-02  0.1142774E+00
       21   -1    0    0  502  503  0.00000000000E+00  0.00000000000E+00  0.13691316743E+04  0.13691316743E+04  0.00000000000E+00 0.  1.
       21   -1    0    0  503  504  0.00000000000E+00  0.00000000000E+00 -0.16039823939E+03  0.16039823939E+03  0.00000000000E+00 0. -1.
        6    1    1    2  501    0  0.95348218248E+02 -0.11126255033E+03  0.11541866941E+03  0.25440343370E+03  0.17300000000E+03 0. -1.
       -6    1    1    2    0  504  0.72548886882E+01  0.89183593271E+02  0.22708270843E+03  0.29916868684E+03  0.17300000000E+03 0.  1.
        6    1    1    2  502    0  0.17022087736E+02 -0.10102529427E+03  0.46346438453E+03  0.50519708756E+03  0.17300000000E+03 0.  1.
       -6    1    1    2    0  501 -0.11962519467E+03  0.12310425133E+03  0.40276767257E+03  0.47076070563E+03  0.17300000000E+03 0.  1.
</event>
<event>
 6   0  0.4500850E-05  0.1877163E+03  0.7546771E-02  0.1160659E+00
       21   -1    0    0  501  503  0.00000000000E+00  0.00000000000E+00  0.11339278381E+04  0.11339278381E+04  0.00000000000E+00 0. -1.
       21   -1    0    0  503  504  0.00000000000E+00  0.00000000000E+00 -0.49296823980E+03  0.49296823980E+03  0.00000000000E+00 0. -1.
        6    1    1    2  501    0  0.42167188110E+02 -0.30714126594E+02  0.78702971080E+03  0.80750615788E+03  0.17300000000E+03 0. -1.
       -6    1    1    2    0  502 -0.96968684515E+02  0.35737137117E+02  0.11370414914E+03  0.23138215635E+03  0.17300000000E+03 0.  1.
        6    1    1    2  502    0 -0.25275820289E+02  0.39631301600E+02 -0.33363195725E+03  0.37874633999E+03  0.17300000000E+03 0. -1.
       -6    1    1    2    0  504  0.80077316694E+02 -0.44654312122E+02  0.73857695617E+02  0.20926142368E+03  0.17300000000E+03 0. -1.
</event>
<event>
 6   0  0.4500850E-05  0.4690269E+03  0.7546771E-02  0.1022195E+00
       -2   -1    0    0    0  501  0.00000000000E+00  0.00000000000E+00  0.31425652129E+03  0.31425652129E+03  0.00000000000E+00 0. -1.
        2   -1    0    0  502    0  0.00000000000E+00  0.00000000000E+00 -0.10448499543E+04  0.10448499543E+04  0.00000000000E+00 0.  1.
        6    1    1    2  502    0 -0.21474937686E+03 -0.20211435285E+03 -0.17220920018E+03  0.38282177983E+03  0.17300000000E+03 0.  1.
       -6    1    1    2    0  501  0.10578954867E+03 -0.15288626142E+02 -0.23585719190E+01  0.20337092604E+03  0.17300000000E+03 0.  1.
        6    1    1    2  503    0 -0.80448214706E+02  0.95544412491E+02 -0.99908090027E+02  0.23560831153E+03  0.17300000000E+03 0. -1.
       -6    1    1    2    0  503  0.18940804289E+03  0.12185856650E+03 -0.45611757090E+03  0.53730545821E+03  0.17300000000E+03 0. -1.
</event>
<event>
 6   0  0.4500850E-05  0.3535847E+03  0.7546771E-02  0.1077272E+00
       21   -1    0    0  501  503  0.00000000000E+00  0.00000000000E+00  0.22673873286E+04  0.22673873286E+04  0.00000000000E+00 0.  1.
       21   -1    0    0  502  504  0.00000000000E+00  0.00000000000E+00 -0.95695213840E+03  0.95695213840E+03  0.00000000000E+00 0. -1.
        6    1    1    2  501    0 -0.46083465827E+02 -0.38455883366E+03  0.32576163574E+03  0.53484467436E+03  0.17300000000E+03 0.  1.
       -6    1    1    2    0  503  0.21513606197E+03  0.15909096119E+03 -0.60831890449E+03  0.68671271188E+03  0.17300000000E+03 0. -1.
        6    1    1    2  502    0 -0.79952920110E+02  0.23021626031E+03 -0.87218911609E+02  0.31133283554E+03  0.17300000000E+03 0.  1.
       -6    1    1    2    0  504 -0.89099676031E+02 -0.47483878374E+01  0.16802113705E+04  0.16914492452E+04  0.17300000000E+03 0. -1.
</event>
<event>
 6   0  0.4500850E-05  0.2585566E+03  0.7546771E-02  0.1115076E+00
       21   -1    0    0  502  503  0.00000000000E+00  0.00000000000E+00  0.20185035460E+04  0.20185035460E+04  0.00000000000E+00 0. -1.
       21   -1    0    0  503  504  0.00000000000E+00  0.00000000000E+00 -0.31779824866E+03  0.31779824866E+03  0.00000000000E+00 0. -1.
        6    1    1    2  501    0 -0.11356865958E+03  0.62227064660E+02  0.11672947889E+03  0.24561111387E+03  0.17300000000E+03 0. -1.
       -6    1    1    2    0  504 -0.16168225771E+03  0.88942927407E+02 -0.11393676924E+03  0.27742131169E+03  0.17300000000E+03 0. -1.
        6    1    1    2  502    0  0.13424625779E+03 -0.13871786593E+03  0.14749319842E+04  0.14975373324E+04  0.17300000000E+03 0. -1.
       -6    1    1    2    0  501  0.14100465949E+03 -0.12452126139E+02  0.22298060349E+03  0.31573203667E+03  0.17300000000E+03 0.  1.
</event>
<event>
 6   0  0.4500850E-05  0.2792300E+03  0.7546771E-02  0.1109723E+00
       21   -1    0    0  504  503  0.00000000000E+00  0.00000000000E+00  0.10927038868E+04  0.10927038868E+04  0.00000000000E+00 0.  1.
       21   -1    0    0  502  504  0.00000000000E+00  0.00000000000E+00 -0.27915400991E+03  0.27915400991E+03  0.00000000000E+00 0.  1.
        6    1    1    2  501    0 -0.12255623171E+03 -0.40690625551E+02  0.29365592245E+03  0.36447024258E+03  0.17300000000E+03 0.  1.
       -6    1    1    2    0  501 -0.11848833952E+03  0.20947776874E+03  0.91386072242E+02  0.31016259671E+03  0.17300000000E+03 0. -1.
        6    1    1    2  502    0  0.15266649400E+03 -0.13919180842E+03  0.54767935058E+02  0.27497262524E+03  0.17300000000E+03 0.  1.
       -6    1    1    2    0  503  0.88378077243E+02 -0.29595334770E+02  0.37373994710E+03  0.42225243212E+03  0.17300000000E+03 0. -1.
</event>
<event>
 6   0  0.4500850E-05  0.4018585E+03  0.7546771E-02  0.1069126E+00
       21   -1    0    0  504  503  0.00000000000E+00  0.00000000000E+00  0.30579713270E+03  0.30579713270E+03  0.00000000000E+00 0.  1.
       21   -1    0    0  502  504  0.00000000000E+00  0.00000000000E+00 -0.18634865243E+04  0.18634865243E+04  0.00000000000E+00 0. -1.
        6    1    1    2  501    0  0.17538279244E+03 -0.19728604548E+03 -0.42672173421E+03  0.53075544847E+03  0.17300000000E+03 0. -1.
       -6    1    1    2    0  501  0.41625536684E+02 -0.75027836991E+02 -0.44671847198E+03  0.48667058144E+03  0.17300000000E+03 0.  1.
        6    1    1    2  502    0  0.22734534675E+03  0.18131598573E+03 -0.55413728193E+03  0.64927538117E+03  0.17300000000E+03 0. -1.
       -6    1    1    2    0  503 -0.44435367588E+03  0.90997896749E+02 -0.13011190346E+03  0.50258224591E+03  0.17300000000E+03 0.  1.
</event>
<event>
 6   0  0.4500850E-05  0.1974342E+03  0.7546771E-02  0.1154615E+00
       21   -1    0    0  501  503  0.00000000000E+00  0.00000000000E+00  0.30750509411E+03  0.30750509411E+03  0.00000000000E+00 0. -1.
       21   -1    0    0  503  504  0.00000000000E+00  0.00000000000E+00 -0.66202708907E+03  0.66202708907E+03  0.00000000000E+00 0. -1.
        6    1    1    2  501    0  0.22027771758E+00 -0.91072060158E+02  0.49542006406E+02  0.20168683413E+03  0.17300000000E+03 0. -1.
       -6    1    1    2    0  504  0.12806766539E+03  0.55468521511E+02 -0.29143938723E+03  0.36652967169E+03  0.17300000000E+03 0. -1.
        6    1    1    2  502    0 -0.80851381910E+02  0.65386004303E+01 -0.71649158063E+01  0.19120678668E+03  0.17300000000E+03 0. -1.
       -6    1    1    2    0  502 -0.47436561195E+02  0.29064938217E+02 -0.10545969833E+03  0.21010889068E+03  0.17300000000E+03 0.  1.
</event>
<event>
 6   0  0.4500850E-05  0.2076325E+03  0.7546771E-02  0.1143696E+00
       21   -1    0    0  502  503  0.00000000000E+00  0.00000000000E+00  0.32570621571E+03  0.32570621571E+03  0.00000000000E+00 0. -1.
       21   -1    0    0  501  504  0.00000000000E+00  0.00000000000E+00 -0.76779381734E+03  0.76779381734E+03  0.00000000000E+00 0. -1.
        6    1    1    2  501    0 -0.47477895795E+02  0.10033955011E+03 -0.30347772022E+03  0.36653772326E+03  0.17300000000E+03 0.  1.
       -6    1    1    2    0  503  0.10968405805E+03 -0.11686675119E+03 -0.72961149711E+02  0.24686182267E+03  0.17300000000E+03 0. -1.
        6    1    1    2  502    0 -0.23197234587E+02 -0.79950680107E+02 -0.16676806914E+03  0.25430456509E+03  0.17300000000E+03 0. -1.
       -6    1    1    2    0  504 -0.39008927670E+02  0.96477881188E+02  0.10111933744E+03  0.22579592202E+03  0.17300000000E+03 0. -1.
</event>
<event>
 6   0  0.4500850E-05  0.2212413E+03  0.7546771E-02  0.1141459E+00
       21   -1    0    0  502  503  0.00000000000E+00  0.00000000000E+00  0.83209033721E+03  0.83209033721E+03  0.00000000000E+00 0.  1.
       21   -1    0    0  501  504  0.00000000000E+00  0.00000000000E+00 -0.24151092170E+03  0.24151092170E+03  0.00000000000E+00 0. -1.
        6    1    1    2  501    0 -0.13433695885E+03 -0.36969492404E+02  0.13380838068E+03  0.25931996573E+03  0.17300000000E+03 0. -1.
       -6    1    1    2    0  503  0.27001590363E+02 -0.41948747362E+02  0.24979503296E+03  0.30792099925E+03  0.17300000000E+03 0.  1.
        6    1    1    2  502    0  0.11160422190E+03 -0.85841862879E+02  0.10595907248E+03  0.24694261036E+03  0.17300000000E+03 0. -1.
       -6    1    1    2    0  504 -0.42688534121E+01  0.16476010264E+03  0.10101692939E+03  0.25941768358E+03  0.17300000000E+03 0. -1.
</event>
<event>
 6   0  0.4500850E-05  0.2434318E+03  0.7546771E-02  0.1121324E+00
       21   -1    0    0  502  503  0.00000000000E+00  0.00000000000E+00  0.76532605980E+03  0.76532605980E+03  0.00000000000E+00 0. -1.
       21   -1    0    0  503  504  0.00000000000E+00  0.00000000000E+00 -0.13663532764E+04  0.13663532764E+04  0.00000000000E+00 0.  1.
        6    1    1    2  501    0  0.15213874559E+03 -0.23177303753E+03 -0.12398762131E+03  0.34952377469E+03  0.17300000000E+03 0.  1.
       -6    1    1    2    0  504 -0.14754349593E+03  0.67568963894E+02 -0.96804727054E+03  0.99668408539E+03  0.17300000000E+03 0.  1.
        6    1    1    2  502    0 -0.13221065737E+03  0.11141886367E+03 -0.24913371459E+01  0.24459972990E+03  0.17300000000E+03 0.  1.
       -6    1    1    2    0  501  0.12761540771E+03  0.52785209962E+02  0.49349901238E+03  0.54087174625E+03  0.17300000000E+03 0. -1.
</event>
<event>
 6   0  0.4500850E-05  0.2008994E+03  0.7546771E-02  0.1150669E+00
       21   -1    0    0  504  503  0.00000000000E+00  0.00000000000E+00  0.46695040641E+03  0.46695040641E+03  0.00000000000E+00 0. -1.
       21   -1    0    0  502  504  0.00000000000E+00  0.00000000000E+00 -0.79180315709E+03  0.79180315709E+03  0.00000000000E+00 0.  1.
        6    1    1    2  501    0  0.70711711166E+02 -0.48264693378E+02 -0.11920372487E+02  0.19339266274E+03  0.17300000000E+03 0. -1.
       -6    1    1    2    0  503 -0.70867325202E+02  0.10926388267E+03  0.24338969544E+03  0.32577341463E+03  0.17300000000E+03 0. -1.
        6    1    1    2  502    0 -0.19414700577E+02 -0.14771413538E+03 -0.11146235707E+03  0.25406545108E+03  0.17300000000E+03 0.  1.
       -6    1    1    2    0  501  0.19570314613E+02  0.86714946095E+02 -0.44485971656E+03  0.48552203504E+03  0.17300000000E+03 0.  1.
</event>
<event>
 6   0  0.4500850E-05  0.2804091E+03  0.7546771E-02  0.1107642E+00
       21   -1    0    0  501  503  0.00000000000E+00  0.00000000000E+00  0.58907368428E+03  0.58907368428E+03  0.00000000000E+00 0.  1.
       21   -1    0    0  502  504  0.00000000000E+00  0.00000000000E+00 -0.62611473908E+03  0.62611473908E+03  0.00000000000E+00 0. -1.
        6    1    1    2  501    0  0.85021506482E+02  0.68684276546E+02  0.25240339684E+02  0.20618501681E+03  0.17300000000E+03 0.  1.
       -6    1    1    2    0  504  0.57075798142E+02 -0.12913732233E+03  0.30097541489E+02  0.22531967681E+03  0.17300000000E+03 0. -1.
        6    1    1    2  502    0 -0.22896125048E+03 -0.69230146344E+02 -0.33553440083E+03  0.44690983601E+03  0.17300000000E+03 0. -1.
       -6    1    1    2    0  503  0.86863945853E+02  0.12968319213E+03  0.24315546486E+03  0.33677389374E+03  0.17300000000E+03 0.  1.
</event>
<event>
 6   0  0.4500850E-05  0.3808787E+03  0.7546771E-02  0.1075257E+00
       21   -1    0    0  502  503  0.00000000000E+00  0.00000000000E+00  0.18165434516E+04  0.18165434516E+04  0.00000000000E+00 0. -1.
       21   -1    0    0  503  504  0.00000000000E+00  0.00000000000E+00 -0.49081512462E+03  0.49081512462E+03  0.00000000000E+00 0. -1.
        6    1    1    2  501    0  0.16727879642E+03 -0.36595840375E+03  0.46751702660E+03  0.64063165639E+03  0.17300000000E+03 0. -1.
       -6    1    1    2    0  504 -0.79595693993E+02 -0.22937794336E+02 -0.27984165742E+03  0.33926681261E+03  0.17300000000E+03 0. -1.
        6    1    1    2  502    0 -0.12503923887E+03  0.60766400085E+02  0.14088845926E+03  0.26288005742E+03  0.17300000000E+03 0.  1.
       -6    1    1    2    0  501  0.37356136445E+02  0.32812979800E+03  0.99716449857E+03  0.10645800498E+04  0.17300000000E+03 0. -1.
</event>
<event>
 6   0  0.4500850E-05  0.2956667E+03  0.7546771E-02  0.1106236E+00
       21   -1    0    0  501  503  0.00000000000E+00  0.00000000000E+00  0.59513895299E+03  0.59513895299E+03  0.00000000000E+00 0. -1.
       21   -1    0    0  502  504  0.00000000000E+00  0.00000000000E+00 -0.49658618649E+03  0.49658618649E+03  0.00000000000E+00 0. -1.
        6    1    1    2  501    0 -0.42534658352E+02 -0.71411496742E+02 -0.27556829774E+02  0.19389991721E+03  0.17300000000E+03 0. -1.
       -6    1    1    2    0  504 -0.41996206282E+02 -0.32472035738E+02 -0.14578244463E+03  0.23237821673E+03  0.17300000000E+03 0.  1.
        6    1    1    2  502    0  0.27155053582E+03 -0.12354918482E+02  0.18833097700E+03  0.37321561384E+03  0.17300000000E+03 0. -1.
       -6    1    1    2    0  503 -0.18701967118E+03  0.11623845096E+03  0.83561063905E+02  0.29223139170E+03  0.17300000000E+03 0. -1.
</event>
<event>
 6   0  0.4500850E-05  0.2540393E+03  0.7546771E-02  0.1122435E+00
       21   -1    0    0  502  503  0.00000000000E+00  0.00000000000E+00  0.38856345665E+03  0.38856345665E+03  0.00000000000E+00 0. -1.
       21   -1    0    0  503  504  0.00000000000E+00  0.00000000000E+00 -0.17455819466E+04  0.17455819466E+04  0.00000000000E+00 0. -1.
        6    1    1    2  501    0  0.24696761597E+01  0.14062952544E+03 -0.14700224812E+03  0.26706071160E+03  0.17300000000E+03 0.  1.
       -6    1    1    2    0  504  0.74559149133E+02 -0.20099226324E+02 -0.13479324028E+04  0.13611810343E+04  0.17300000000E+03 0. -1.
        6    1    1    2  502    0 -0.69991821382E+02  0.83131577581E+02 -0.17380414787E+01  0.20430794169E+03  0.17300000000E+03 0.  1.
       -6    1    1    2    0  501 -0.70370039104E+01 -0.20366187670E+03  0.13965420245E+03  0.30159571566E+03  0.17300000000E+03 0. -1.
</event>
<event>
 6   0  0.4500850E-05  0.5342243E+03  0.7546771E-02  0.1032006E+00
       21   -1    0    0  504  503  0.00000000000E+00  0.00000000000E+00  0.12437545448E+04  0.12437545448E+04  0.00000000000E+00 0. -1.
       21   -1    0    0  501  504  0.00000000000E+00  0.00000000000E+00 -0.43962113798E+03  0.43962113798E+03  0.00000000000E+00 0. -1.
        6    1    1    2  501    0 -0.52864242542E+02  0.21938594407E+03 -0.95033011447E+02  0.29980842860E+03  0.17300000000E+03 0. -1.
       -6    1    1    2    0  502  0.81613696555E+02  0.10921463597E+03  0.38672329587E+01  0.22030112952E+03  0.17300000000E+03 0.  1.
        6    1    1    2  502    0 -0.12685582710E+03 -0.45720907528E+03  0.58334962454E+03  0.77159466292E+03  0.17300000000E+03 0. -1.
       -6    1    1    2    0  503  0.98106373083E+02  0.12860849524E+03  0.31194956080E+03  0.39167146177E+03  0.17300000000E+03 0.  1.
</event>
<event>
 6   0  0.4500850E-05  0.2635244E+03  0.7546771E-02  0.1106652E+00
       21   -1    0    0  502  503  0.00000000000E+00  0.00000000000E+00  0.84273110213E+03  0.84273110213E+03  0.00000000000E+00 0. -1.
       21   -1    0    0  501  504  0.00000000000E+00  0.00000000000E+00 -0.49161026862E+03  0.49161026862E+03  0.00000000000E+00 0. -1.
        6    1    1    2  501    0  0.66691013997E+02  0.15849636011E+03 -0.13425243261E+03  0.27842683631E+03  0.17300000000E+03 0. -1.
       -6    1    1    2    0  503  0.18675679301E+03 -0.21338919481E+03  0.19047187992E+03  0.38291198106E+03  0.17300000000E+03 0. -1.
        6    1    1    2  502    0 -0.15532456691E+03 -0.74761717230E+02  0.35236883636E+03  0.42872815663E+03  0.17300000000E+03 0. -1.
       -6    1    1    2    0  504 -0.98123240095E+02  0.12965455193E+03 -0.57467450158E+02  0.24427439676E+03  0.17300000000E+03 0. -1.
</event>
<event>
 6   0  0.4500850E-05  0.5665195E+03  0.7546771E-02  0.1013122E+00
       21   -1    0    0  504  503  0.00000000000E+00  0.00000000000E+00  0.87445685394E+03  0.87445685394E+03  0.00000000000E+00 0. -1.
       21   -1    0    0  501  504  0.00000000000E+00  0.00000000000E+00 -0.14014281172E+04  0.14014281172E+04  0.00000000000E+00 0.  1.
        6    1    1    2  501    0 -0.46876080495E+03  0.25213073347E+03  0.25316216374E+03  0.61426922450E+03  0.17300000000E+03 0. -1.
       -6    1    1    2    0  502  0.39863002648E+03 -0.23924120326E+03 -0.92903514741E+03  0.10531749885E+04  0.17300000000E+03 0.  1.
        6    1    1    2  502    0  0.25071162888E+03 -0.10183228813E+03  0.49271305389E+02  0.32493506628E+03  0.17300000000E+03 0. -1.
       -6    1    1    2    0  503 -0.18058085041E+03  0.88942757926E+02  0.99630415001E+02  0.28350569186E+03  0.17300000000E+03 0. -1.
</event>
<event>
 6   0  0.4500850E-05  0.4309628E+03  0.7546771E-02  0.1064465E+00
       21   -1    0    0  502  503  0.00000000000E+00  0.00000000000E+00  0.36400529322E+03  0.36400529322E+03  0.00000000000E+00 0.  1.
       21   -1    0    0  501  504  0.00000000000E+00  0.00000000000E+00 -0.91492249156E+03  0.91492249156E+03  0.00000000000E+00 0.  1.
        6    1    1    2  501    0 -0.41639331098E+02 -0.16347152875E+02  0.22652890627E+00  0.17868999585E+03  0.17300000000E+03 0.  1.
       -6    1    1    2    0  504  0.22892601849E+03  0.19270691278E+02 -0.30366377801E+03  0.41823339365E+03  0.17300000000E+03 0.  1.
        6    1    1    2  502    0 -0.31770641620E+02 -0.27850676587E+02 -0.37529981854E+03  0.41540821808E+03  0.17300000000E+03 0. -1.
       -6    1    1    2    0  503 -0.15551604577E+03  0.24927138185E+02  0.12781986930E+03  0.26659617720E+03  0.17300000000E+03 0.  1.
</event>
<event>
 6   0  0.4500850E-05  0.3367287E+03  0.7546771E-02  0.1070906E+00
       21   -1    0    0  504  503  0.00000000000E+00  0.00000000000E+00  0.19253002800E+04  0.19253002800E+04  0.00000000000E+00 0. -1.
       21   -1    0    0  502  504  0.00000000000E+00  0.00000000000E+00 -0.11992222042E+04  0.11992222042E+04  0.00000000000E+00 0. -1.
        6    1    1    2  501    0 -0.82436603767E+02 -0.77967248379E+02  0.75134676641E+03  0.77931100907E+03  0.17300000000E+03 0. -1.
       -6    1    1    2    0  503  0.32376516093E+03 -0.34804138432E+03  0.76057831684E+03  0.91343585471E+03  0.17300000000E+03 0. -1.
        6    1    1    2  502    0 -0.11993662283E+03 -0.17168648110E+01  0.22858603669E+03  0.31075443246E+03  0.17300000000E+03 0.  1.
       -6    1    1    2    0  501 -0.12139193433E+03  0.42772549751E+03 -0.10144330441E+04  0.11210211880E+04  0.17300000000E+03 0. -1.
</event>
<event>
 6   0  0.4500850E-05  0.4203180E+03  0.7546771E-02  0.1065053E+00
       21   -1    0    0  501  503  0.00000000000E+00  0.00000000000E+00  0.32385377339E+03  0.32385377339E+03  0.00000000000E+00 0. -1.
       21   -1    0    0  502  504  0.00000000000E+00  0.00000000000E+00 -0.12262185632E+04  0.12262185632E+04  0.00000000000E+00 0.  1.
        6    1    1    2  501    0  0.10504324013E+03  0.44135079920E+02 -0.43941033387E+03  0.48579051976E+03  0.17300000000E+03 0.  1.
       -6    1    1    2    0  504  0.23664326406E+02  0.71951492609E+02 -0.58961081440E+03  0.61911786446E+03  0.17300000000E+03 0.  1.
        6    1    1    2  502    0 -0.54963534430E+02 -0.42835976073E+02 -0.30994634807E+02  0.18906501091E+03  0.17300000000E+03 0. -1.
       -6    1    1    2    0  503 -0.73744032107E+02 -0.73250596455E+02  0.15765099325E+03  0.25609894148E+03  0.17300000000E+03 0. -1.
</event>
<event>
 6   0  0.4500850E-05  0.3427387E+03  0.7546771E-02  0.1075876E+00
       21   -1    0    0  504  503  0.00000000000E+00  0.00000000000E+00  0.42291061064E+03  0.42291061064E+03  0.00000000000E+00 0.  1.
       21   -1    0    0  501  504  0.00000000000E+00  0.00000000000E+00 -0.56204444462E+03  0.56204444462E+03  0.00000000000E+00 0. -1.
        6    1    1    2  501    0  0.60096784674E+02 -0.21544572478E+03 -0.20874988134E+03  0.35147403434E+03  0.17300000000E+03 0. -1.
       -6    1    1    2    0  503 -0.10729774066E+03  0.30785859009E+02  0.48528632750E+02  0.21152920002E+03  0.17300000000E+03 0.  1.
        6    1    1    2  502    0  0.66642769523E+02  0.15040999987E+03  0.44951139368E+02  0.24292803815E+03  0.17300000000E+03 0.  1.
       -6    1    1    2    0  502 -0.19441813539E+02  0.34249865904E+02 -0.23863724755E+02  0.17902378274E+03  0.17300000000E+03 0.  1.
</event>
<event>
 6   0  0.4500850E-05  0.2951005E+03  0.7546771E-02  0.1103902E+00
       21   -1    0    0  501  503  0.00000000000E+00  0.00000000000E+00  0.39256671063E+03  0.39256671063E+03  0.00000000000E+00 0. -1.
       21   -1    0    0  503  504  0.00000000000E+00  0.00000000000E+00 -0.11835041527E+04  0.11835041527E+04  0.00000000000E+00 0.  1.
        6    1    1    2  501    0  0.90970603225E+01  0.20210744328E+02  0.15063349314E+03  0.23045754478E+03  0.17300000000E+03 0. -1.
       -6    1    1    2    0  504 -0.19953559052E+03  0.40101083001E+02 -0.35441842763E+03  0.44380623090E+03  0.17300000000E+03 0. -1.
        6    1    1    2  502    0  0.20248841822E+03 -0.29085511008E+03 -0.30824633358E+03  0.50054276215E+03  0.17300000000E+03 0. -1.
       -6    1    1    2    0  502 -0.12049888017E+02  0.23054328275E+03 -0.27890617401E+03  0.40126432551E+03  0.17300000000E+03 0.  1.
</event>
<event>
 6   0  0.4500850E-05  0.2837538E+03  0.7546771E-02  0.1094634E+00
       21   -1    0    0  502  503  0.00000000000E+00  0.00000000000E+00  0.28805775120E+03  0.28805775120E+03  0.00000000000E+00 0. -1.
       21   -1    0    0  503  504  0.00000000000E+00  0.00000000000E+00 -0.17026790880E+04  0.17026790880E+04  0.00000000000E+00 0.  1.
        6    1    1    2  501    0  0.12376827408E+03  0.11879268228E+03 -0.32709154741E+03  0.40785802361E+03  0.17300000000E+03 0.  1.
       -6    1    1    2    0  501  0.21275790250E+03 -0.41668838065E+02 -0.11280500130E+03  0.29942642746E+03  0.17300000000E+03 0. -1.
        6    1    1    2  502    0  0.54739602174E+02 -0.14233865506E+03 -0.15512901645E+02  0.23114144347E+03  0.17300000000E+03 0.  1.
       -6    1    1    2    0  504 -0.39126577875E+03  0.65214810851E+02 -0.95921188643E+03  0.10523109447E+04  0.17300000000E+03 0.  1.
</event>
<event>
 6   0  0.4500850E-05  0.3347181E+03  0.7546771E-02  0.1084303E+00
       21   -1    0    0  502  503  0.00000000000E+00  0.00000000000E+00  0.66224094997E+03  0.66224094997E+03  0.00000000000E+00 0. -1.
       21   -1    0    0  501  504  0.00000000000E+00  0.00000000000E+00 -0.35882705171E+04  0.35882705171E+04  0.00000000000E+00 0. -1.
        6    1    1    2  501    0 -0.35523963196E+02  0.13363411071E+03 -0.32247482879E+03  0.39120204845E+03  0.17300000000E+03 0. -1.
       -6    1    1    2    0  503  0.11951942139E+03 -0.26812279169E+03  0.54674863279E+03  0.64423426715E+03  0.17300000000E+03 0. -1.
        6    1    1    2  502    0 -0.27014690968E+03  0.87278687503E+01 -0.11200126653E+04  0.11650806406E+04  0.17300000000E+03 0.  1.
       -6    1    1    2    0  504  0.18615145148E+03  0.12576081224E+03 -0.20302907058E+04  0.20499945109E+04  0.17300000000E+03 0. -1.
</event>
<event>
 6   0  0.4500850E-05  0.3039255E+03  0.7546771E-02  0.1089107E+00
       21   -1    0    0  502  503  0.00000000000E+00  0.00000000000E+00  0.15438238896E+03  0.15438238896E+03  0.00000000000E+00 0.  1.
       21   -1    0    0  503  504  0.00000000000E+00  0.00000000000E+00 -0.13378764919E+04  0.13378764919E+04  0.00000000000E+00 0. -1.
        6    1    1    2  501    0 -0.86733702069E+02 -0.11365599393E+03 -0.11312707169E+03  0.25133076688E+03  0.17300000000E+03 0.  1.
       -6    1    1    2    0  504  0.13833375965E+03  0.98042880728E+02 -0.36020257848E+03  0.43407779609E+03  0.17300000000E+03 0. -1.
        6    1    1    2  502    0  0.48257094196E+02  0.30871001837E+02 -0.35694684190E+03  0.40077651358E+03  0.17300000000E+03 0. -1.
       -6    1    1    2    0  501 -0.99857151772E+02 -0.15257888640E+02 -0.35321761087E+03  0.40607380432E+03  0.17300000000E+03 0.  1.
</event>
<event>
 6   0  0.4500850E-05  0.2106755E+03  0.7546771E-02  0.1141438E+00
       21   -1    0    0  502  503  0.00000000000E+00  0.00000000000E+00  0.95385178204E+03  0.95385178204E+03  0.00000000000E+00 0.  1.
       21   -1    0    0  501  504  0.00000000000E+00  0.00000000000E+00 -0.71679010135E+03  0.71679010135E+03  0.00000000000E+00 0.  1.
        6    1    1    2  501    0 -0.97620759736E+02  0.90350105490E+02 -0.54556126699E+03  0.58758748313E+03  0.17300000000E+03 0.  1.
       -6    1    1    2    0  504  0.58566975594E+02 -0.19365048184E+02  0.43211116260E+03  0.46952545465E+03  0.17300000000E+03 0.  1.
        6    1    1    2  502    0 -0.49846316964E+02  0.21708807844E+02 -0.22527433578E+02  0.18273591031E+03  0.17300000000E+03 0. -1.
       -6    1    1    2    0  503  0.88900101106E+02 -0.92693865150E+02  0.37303921866E+03  0.43079303531E+03  0.17300000000E+03 0.  1.
</event>
<event>
 6   0  0.4500850E-05  0.2049082E+03  0.7546771E-02  0.1145669E+00
       21   -1    0    0  502  503  0.00000000000E+00  0.00000000000E+00  0.42757961913E+03  0.42757961913E+03  0.00000000000E+00 0.  1.
       21   -1    0    0  501  504  0.00000000000E+00  0.00000000000E+00 -0.10813417738E+04  0.10813417738E+04  0.00000000000E+00 0. -1.
        6    1    1    2  501    0 -0.96247969499E+02  0.12340577798E+03  0.19602813523E+03  0.30471082599E+03  0.17300000000E+03 0.  1.
       -6    1    1    2    0  503 -0.41173703919E+02 -0.57068266361E+02 -0.14836336370E+03  0.23852200864E+03  0.17300000000E+03 0. -1.
        6    1    1    2  502    0  0.36001910367E+02 -0.13295343469E+03  0.12160066585E+02  0.22147148928E+03  0.17300000000E+03 0. -1.
       -6    1    1    2    0  504  0.10141976305E+03  0.66615923071E+02 -0.71358699274E+03  0.74421706897E+03  0.17300000000E+03 0. -1.
</event>
<event>
 6   0  0.4500850E-05  0.2455645E+03  0.7546771E-02  0.1129244E+00
       21   -1    0    0  504  503  0.00000000000E+00  0.00000000000E+00  0.16277299936E+04  0.16277299936E+04  0.00000000000E+00 0. -1.
       21   -1    0    0  502  504  0.00000000000E+00  0.00000000000E+00 -0.40590839355E+03  0.40590839355E+03  0.00000000000E+00 0. -1.
        6    1    1    2  501    0  0.14699410410E+03 -0.29074218043E+02  0.22352656891E+03  0.31991515095E+03  0.17300000000E+03 0. -1.
       -6    1    1    2    0  503 -0.16319911199E+03 -0.98387781436E+02  0.11866635785E+04  0.12142543202E+04  0.17300000000E+03 0. -1.
        6    1    1    2  502    0 -0.12716112112E+02  0.15285594247E+03  0.12560712296E+02  0.23154569776E+03  0.17300000000E+03 0. -1.
       -6    1    1    2    0  501  0.28921120002E+02 -0.25393942995E+02 -0.20092925960E+03  0.26792321826E+03  0.17300000000E+03 0. -1.
</event>
<event>
 6   0  0.4500850E-05  0.4688045E+03  0.7546771E-02  0.1023393E+00
       21   -1    0    0  501  503  0.00000000000E+00  0.00000000000E+00  0.10779213407E+04  0.10779213407E+04  0.00000000000E+00 0.  1.
       21   -1    0    0  503  504  0.00000000000E+00  0.00000000000E+00 -0.52384468473E+03  0.52384468473E+03  0.00000000000E+00 0. -1.
        6    1    1    2  501    0  0.87946984117E+02 -0.24136075975E+03  0.25210873423E+03  0.39934634371E+03  0.17300000000E+03 0.  1.
       -6    1    1    2    0  504  0.19359346346E+03 -0.13047834407E+03  0.11000860498E+03  0.31069908358E+03  0.17300000000E+03 0.  1.
        6    1    1    2  502    0 -0.37287419690E+03  0.30420056463E+02 -0.71279133440E+02  0.41829446735E+03  0.17300000000E+03 0. -1.
       -6    1    1    2    0  502  0.91333749327E+02  0.34141904736E+03  0.26323845021E+03  0.47342613081E+03  0.17300000000E+03 0. -1.
</event>
<event>
 6   0  0.4500850E-05  0.2343058E+03  0.7546771E-02  0.1126015E+00
       21   -1    0    0  502  503  0.00000000000E+00  0.00000000000E+00  0.24248316774E+03  0.24248316774E+03  0.00000000000E+00 0.  1.
       21   -1    0    0  501  504  0.00000000000E+00  0.00000000000E+00 -0.93862083281E+03  0.93862083281E+03  0.00000000000E+00 0. -1.
        6    1    1    2  501    0  0.58286782266E+02 -0.40739956326E+02 -0.13591776579E+03  0.23121360705E+03  0.17300000000E+03 0.  1.
       -6    1    1    2    0  504  0.20696990340E+03  0.11699055496E+03 -0.16142349141E+03  0.33542491625E+03  0.17300000000E+03 0.  1.
        6    1    1    2  502    0 -0.11155672798E+03  0.31602912321E+02 -0.14011110276E+03  0.25100551536E+03  0.17300000000E+03 0.  1.
       -6    1    1    2    0  503 -0.15369995768E+03 -0.10785351095E+03 -0.25868530511E+03  0.36345996189E+03  0.17300000000E+03 0. -1.
</event>
<event>
 6   0  0.4500850E-05  0.1255100E+04  0.7546771E-02  0.9070610E-01
       21   -1    0    0  504  503  0.00000000000E+00  0.00000000000E+00  0.16642012603E+04  0.16642012603E+04  0.00000000000E+00 0. -1.
       21   -1    0    0  502  504  0.00000000000E+00  0.00000000000E+00 -0.92989362318E+03  0.92989362318E+03  0.00000000000E+00 0. -1.
        6    1    1    2  501    0  0.91069218055E+03  0.12621171263E+03  0.32374761761E+03  0.98996523375E+03  0.17300000000E+03 0. -1.
       -6    1    1    2    0  503  0.21194423308E+03  0.15942759912E+03  0.58096362323E+02  0.32193431724E+03  0.17300000000E+03 0. -1.
        6    1    1    2  502    0 -0.82374703594E+03 -0.18030939136E+03  0.32492294213E+03  0.92009487237E+03  0.17300000000E+03 0. -1.
       -6    1    1    2    0  501 -0.29888937769E+03 -0.10532992038E+03  0.27540715030E+02  0.36210046010E+03  0.17300000000E+03 0.  1.
</event>
<event>
 6   0  0.4500850E-05  0.1009341E+04  0.7546771E-02  0.9298359E-01
        2   -1    0    0  502    0  0.00000000000E+00  0.00000000000E+00  0.66576236804E+03  0.66576236804E+03  0.00000000000E+00 0.  1.
       -2   -1    0    0    0  501  0.00000000000E+00  0.00000000000E+00 -0.16092255923E+04  0.16092255923E+04  0.00000000000E+00 0. -1.
        6    1    1    2  502    0 -0.39585871843E+03  0.84697202408E+02 -0.35077620978E+03  0.56289491950E+03  0.17300000000E+03 0.  1.
       -6    1    1    2    0  501  0.71633620148E+03  0.33752272131E+03 -0.31348974061E+03  0.86905923758E+03  0.17300000000E+03 0. -1.
        6    1    1    2  503    0 -0.53575698558E+02 -0.12569067347E+03  0.12150443411E+03  0.25171576904E+03  0.17300000000E+03 0.  1.
       -6    1    1    2    0  503 -0.26690178449E+03 -0.29652925025E+03 -0.40070170794E+03  0.59131803420E+03  0.17300000000E+03 0. -1.
</event>
<event>
 6   0  0.4500850E-05  0.2184074E+03  0.7546771E-02  0.1135398E+00
       21   -1    0    0  502  503  0.00000000000E+00  0.00000000000E+00  0.39918295004E+03  0.39918295004E+03  0.00000000000E+00 0. -1.
       21   -1    0    0  501  504  0.00000000000E+00  0.00000000000E+00 -0.60047065251E+03  0.60047065251E+03  0.00000000000E+00 0. -1.
        6    1    1    2  501    0  0.11661136668E+03 -0.64982904374E+02 -0.75333016689E+01  0.21864752304E+03  0.17300000000E+03 0. -1.
       -6    1    1    2    0  503 -0.77928166197E+02 -0.13456022343E+03  0.45028190263E+02  0.23692992790E+03  0.17300000000E+03 0.  1.
        6    1    1    2  502    0 -0.94532928223E+02  0.39669511418E+02 -0.22474619358E+03  0.30157917067E+03  0.17300000000E+03 0. -1.
       -6    1    1    2    0  504  0.55849727741E+02  0.15987361639E+03 -0.14036397487E+02  0.24249698093E+03  0.17300000000E+03 0. -1.
</event>
<event>
 6   0  0.4500850E-05  0.3379340E+03  0.7546771E-02  0.1068445E+00
       21   -1    0    0  501  503  0.00000000000E+00  0.00000000000E+00  0.44614493036E+03  0.44614493036E+03  0.00000000000E+00 0. -1.
       21   -1    0    0  503  504  0.00000000000E+00  0.00000000000E+00 -0.75284458352E+03  0.75284458352E+03  0.00000000000E+00 0. -1.
        6    1    1    2  501    0 -0.20420378178E+02  0.13348704041E+03  0.10322728873E+03  0.24252969909E+03  0.17300000000E+03 0. -1.
       -6    1    1    2    0  502 -0.71856175670E+02  0.55695761703E+02  0.15664586281E+02  0.19606046801E+03  0.17300000000E+03 0. -1.
        6    1    1    2  502    0  0.20126409842E+03  0.33167361743E+01 -0.18793291918E+02  0.26608349417E+03  0.17300000000E+03 0. -1.
       -6    1    1    2    0  504 -0.10898754457E+03 -0.19249953829E+03 -0.40679823626E+03  0.49431585260E+03  0.17300000000E+03 0. -1.
</event>
<event>
 6   0  0.4500850E-05  0.3550420E+03  0.7546771E-02  0.1069624E+00
       21   -1    0    0  504  503  0.00000000000E+00  0.00000000000E+00  0.28035676054E+03  0.28035676054E+03  0.00000000000E+00 0.  1.
       21   -1    0    0  501  504  0.00000000000E+00  0.00000000000E+00 -0.15686788655E+04  0.15686788655E+04  0.00000000000E+00 0. -1.
        6    1    1    2  501    0  0.11321474876E+03 -0.99721932605E+02  0.82901141670E+02  0.24405663783E+03  0.17300000000E+03 0.  1.
       -6    1    1    2    0  502 -0.25840645129E+03  0.55297384317E+02 -0.10708049403E+04  0.11164156551E+04  0.17300000000E+03 0. -1.
        6    1    1    2  502    0  0.94756878128E+02  0.21144528554E+02 -0.11665271657E+03  0.23013651019E+03  0.17300000000E+03 0.  1.
       -6    1    1    2    0  503  0.50434824401E+02  0.23280019733E+02 -0.18376558985E+03  0.25842682300E+03  0.17300000000E+03 0. -1.
</event>
<event>
 6   0  0.4500850E-05  0.4097667E+03  0.7546771E-02  0.1070887E+00
       21   -1    0    0  501  503  0.00000000000E+00  0.00000000000E+00  0.10107115349E+04  0.10107115349E+04  0.00000000000E+00 0.  1.
       21   -1    0    0  502  504  0.00000000000E+00  0.00000000000E+00 -0.50139393181E+03  0.50139393181E+03  0.00000000000E+00 0.  1.
        6    1    1    2  501    0 -0.78323037845E+02  0.80258737780E+02 -0.10247136856E+03  0.23022889615E+03  0.17300000000E+03 0.  1.
       -6    1    1    2    0  504 -0.79591918490E+02  0.23923601385E+02 -0.21848609049E+03  0.29081331457E+03  0.17300000000E+03 0.  1.
        6    1    1    2  502    0  0.14477900722E+03 -0.10004406332E+03  0.76801136171E+03  0.80668471366E+03  0.17300000000E+03 0.  1.
       -6    1    1    2    0  503  0.13135949115E+02 -0.41382758419E+01  0.62263700424E+02  0.18437854234E+03  0.17300000000E+03 0. -1.
</event>
<event>
 6   0  0.4500850E-05  0.2234062E+03  0.7546771E-02  0.1131786E+00
       21   -1    0    0  502  503  0.00000000000E+00  0.00000000000E+00  0.52023140077E+03  0.52023140077E+03  0.00000000000E+00 0. -1.
       21   -1    0    0  503  504  0.00000000000E+00  0.00000000000E+00 -0.88530460136E+03  0.88530460136E+03  0.00000000000E+00 0. -1.
        6    1    1    2  501    0 -0.54127354587E+02 -0.31734470221E+02 -0.10524604639E+03  0.21199664478E+03  0.17300000000E+03 0. -1.
       -6    1    1    2    0  504  0.87085018120E+02  0.15245470563E+03 -0.53228857964E+03  0.58658875685E+03  0.17300000000E+03 0. -1.
        6    1    1    2  502    0  0.25638307075E+02  0.53143953832E+02 -0.57540354673E+02  0.19162853398E+03  0.17300000000E+03 0. -1.
       -6    1    1    2    0  501 -0.58595970608E+02 -0.17386418924E+03  0.33000178011E+03  0.41532206653E+03  0.17300000000E+03 0. -1.
</event>
<event>
 6   0  0.4500850E-05  0.2405974E+03  0.7546771E-02  0.1121664E+00
       21   -1    0    0  502  503  0.00000000000E+00  0.00000000000E+00  0.11460243534E+04  0.11460243534E+04  0.00000000000E+00 0. -1.
       21   -1    0    0  501  504  0.00000000000E+00  0.00000000000E+00 -0.17748730429E+04  0.17748730429E+04  0.00000000000E+00 0.  1.
        6    1    1    2  501    0 -0.18639318791E+02 -0.10442015446E+02 -0.20893667473E+03  0.27210291057E+03  0.17300000000E+03 0.  1.
       -6    1    1    2    0  503  0.99629282021E+02  0.21803991326E+03 -0.61285732325E+03  0.68043404990E+03  0.17300000000E+03 0.  1.
        6    1    1    2  502    0  0.67908697244E+00  0.64113087912E+02  0.10411571618E+04  0.10573779763E+04  0.17300000000E+03 0. -1.
       -6    1    1    2    0  504 -0.81669050203E+02 -0.27171098573E+03 -0.84821185330E+03  0.91098245955E+03  0.17300000000E+03 0.  1.
</event>
<event>
 6   0  0.4500850E-05  0.3771436E+03  0.7546771E-02  0.1059002E+00
       21   -1    0    0  502  503  0.00000000000E+00  0.00000000000E+00  0.55369697839E+03  0.55369697839E+03  0.00000000000E+00 0.  1.
       21   -1    0    0  503  504  0.00000000000E+00  0.00000000000E+00 -0.16956940751E+04  0.16956940751E+04  0.00000000000E+00 0. -1.
        6    1    1    2  501    0  0.65329208223E+02  0.24512661825E+03 -0.22234510100E+03  0.37910593290E+03  0.17300000000E+03 0. -1.
       -6    1    1    2    0  504  0.27719323428E+03 -0.28142498486E+03 -0.84635805893E+03  0.94988792768E+03  0.17300000000E+03 0.  1.
        6    1    1    2  502    0  0.19994262906E+03  0.79806336420E+01  0.15467233852E+03  0.30642010008E+03  0.17300000000E+03 0.  1.
       -6    1    1    2    0  501 -0.54246507157E+03  0.28317732975E+02 -0.22796627535E+03  0.61397709287E+03  0.17300000000E+03 0. -1.
</event>
<event>
 6   0  0.4500850E-05  0.4800680E+03  0.7546771E-02  0.1053462E+00
       21   -1    0    0  502  503  0.00000000000E+00  0.00000000000E+00  0.12290591795E+04  0.12290591795E+04  0.00000000000E+00 0.  1.
       21   -1    0    0  501  504  0.00000000000E+00  0.00000000000E+00 -0.14880099293E+04  0.14880099293E+04  0.00000000000E+00 0.  1.
        6    1    1    2  501    0  0.51419305830E+02  0.35151952618E+02  0.26959118404E+03  0.32632500869E+03  0.17300000000E+03 0.  1.
       -6    1    1    2    0  503  0.20035638490E+03  0.44198106396E+02  0.86897876891E+03  0.90947746228E+03  0.17300000000E+03 0.  1.
        6    1    1    2  502    0 -0.22822056555E+03 -0.96123054496E+02 -0.10408644821E+04  0.10838137009E+04  0.17300000000E+03 0.  1.
       -6    1    1    2    0  504 -0.23555125177E+02  0.16772995483E+02 -0.35665622067E+03  0.39745293689E+03  0.17300000000E+03 0.  1.
</event>
<event>
 6   0  0.4500850E-05  0.3007902E+03  0.7546771E-02  0.1085278E+00
       21   -1    0    0  501  503  0.00000000000E+00  0.00000000000E+00  0.14398748282E+04  0.14398748282E+04  0.00000000000E+00 0.  1.
       21   -1    0    0  502  504  0.00000000000E+00  0.00000000000E+00 -0.59462560594E+03  0.59462560594E+03  0.00000000000E+00 0. -1.
        6    1    1    2  501    0 -0.19260455437E+02 -0.14505032029E+03  0.10248317049E+03  0.24868124335E+03  0.17300000000E+03 0.  1.
       -6    1    1    2    0  504 -0.36690125529E+03  0.77850006760E+02 -0.34968938324E+03  0.54119203564E+03  0.17300000000E+03 0. -1.
        6    1    1    2  502    0  0.15090196197E+03 -0.57975203624E+01  0.20612869896E+03  0.30858232922E+03  0.17300000000E+03 0. -1.
       -6    1    1    2    0  503  0.23525974876E+03  0.72997833896E+02  0.88632673608E+03  0.93604482597E+03  0.17300000000E+03 0.  1.
</event>
<event>
 6   0  0.4500850E-05  0.4132110E+03  0.7546771E-02  0.1052484E+00
       21   -1    0    0  504  503  0.00000000000E+00  0.00000000000E+00  0.58224284940E+03  0.58224284940E+03  0.00000000000E+00 0.  1.
       21   -1    0    0  502  504  0.00000000000E+00  0.00000000000E+00 -0.70494490491E+03  0.70494490491E+03  0.00000000000E+00 0.  1.
        6    1    1    2  501    0  0.10966526190E+03  0.23291782069E+03  0.23045593448E+03  0.38641443891E+03  0.17300000000E+03 0.  1.
       -6    1    1    2    0  503  0.10719085151E+03  0.88877785321E+02 -0.27131497492E+02  0.22372808837E+03  0.17300000000E+03 0.  1.
        6    1    1    2  502    0  0.19850613754E+01 -0.37786082948E+02 -0.26966914718E+02  0.17913107777E+03  0.17300000000E+03 0.  1.
       -6    1    1    2    0  501 -0.21884117479E+03 -0.28400952306E+03 -0.29905957778E+03  0.49791414926E+03  0.17300000000E+03 0.  1.
</event>
<event>
 6   0  0.4500850E-05  0.2185403E+03  0.7546771E-02  0.1138531E+00
       21   -1    0    0  501  503  0.00000000000E+00  0.00000000000E+00  0.96421399625E+03  0.96421399625E+03  0.00000000000E+00 0.  1.
       21   -1    0    0  503  504  0.00000000000E+00  0.00000000000E+00 -0.33760360193E+03  0.33760360193E+03  0.00000000000E+00 0. -1.
        6    1    1    2  501    0 -0.10886229821E+03  0.77778118852E+02  0.39610234920E+03  0.45246713338E+03  0.17300000000E+03 0.  1.
       -6    1    1    2    0  504 -0.51404119594E+02  0.10738053184E+02  0.11264411204E+03  0.21301498838E+03  0.17300000000E+03 0. -1.
        6    1    1    2  502    0  0.22232979260E+03 -0.35458232963E+02 -0.13894569852E+03  0.31610556796E+03  0.17300000000E+03 0. -1.
       -6    1    1    2    0  502 -0.62063374799E+02 -0.53057939073E+02  0.25680963160E+03  0.32022990846E+03  0.17300000000E+03 0.  1.
</event>
<event>
 6   0  0.4500850E-05  0.2275263E+03  0.7546771E-02  0.1130995E+00
       21   -1    0    0  501  503  0.00000000000E+00  0.00000000000E+00  0.39274844316E+03  0.39274844316E+03  0.00000000000E+00 0.  1.
       21   -1    0    0  502  504  0.00000000000E+00  0.00000000000E+00 -0.68268228181E+03  0.68268228181E+03  0.00000000000E+00 0.  1.
        6    1    1    2  501    0  0.19973650545E+03 -0.87255804509E+02 -0.21944027205E+03  0.35438860030E+03  0.17300000000E+03 0. -1.
       -6    1    1    2    0  504 -0.79986527603E+01 -0.38821731102E+02  0.56025370869E+02  0.18611541428E+03  0.17300000000E+03 0.  1.
        6    1    1    2  502    0 -0.50030048091E+02 -0.50795410780E+02 -0.16213667645E+03  0.24758934008E+03  0.17300000000E+03 0.  1.
       -6    1    1    2    0  503 -0.14170780460E+03  0.17687294639E+03  0.35617738977E+02  0.28733737031E+03  0.17300000000E+03 0.  1.
</event>
<event>
 6   0  0.4500850E-05  0.3415791E+03  0.7546771E-02  0.1070119E+00
       21   -1    0    0  501  503  0.00000000000E+00  0.00000000000E+00  0.49419042704E+03  0.49419042704E+03  0.00000000000E+00 0. -1.
       21   -1    0    0  503  504  0.00000000000E+00  0.00000000000E+00 -0.63960428673E+03  0.63960428673E+03  0.00000000000E+00 0. -1.
        6    1    1    2  501    0 -0.16100340366E+03  0.11964953949E+03  0.17953945677E+03  0.32000238253E+03  0.17300000000E+03 0. -1.
       -6    1    1    2    0  502  0.32589349040E+02  0.17104100079E+03 -0.37537398695E+02  0.24830454270E+03  0.17300000000E+03 0. -1.
        6    1    1    2  502    0  0.71101354136E+02 -0.22553734621E+03 -0.16109792742E+03  0.33437111017E+03  0.17300000000E+03 0.  1.
       -6    1    1    2    0  504  0.57312700485E+02 -0.65153194081E+02 -0.12631799035E+03  0.23111667837E+03  0.17300000000E+03 0. -1.
</event>
<event>
 6   0  0.4500850E-05  0.4294271E+03  0.7546771E-02  0.1035833E+00
       -2   -1    0    0    0  501  0.00000000000E+00  0.00000000000E+00  0.18295996132E+03  0.18295996132E+03  0.00000000000E+00 0.  1.
        2   -1    0    0  503    0  0.00000000000E+00  0.00000000000E+00 -0.97662885849E+03  0.97662885849E+03  0.00000000000E+00 0. -1.
        6    1    1    2  502    0  0.62583667148E+02  0.96616739216E+01 -0.28248711547E+03  0.33725069866E+03  0.17300000000E+03 0. -1.
       -6    1    1    2    0  502 -0.17915381466E+01 -0.15137958167E+02 -0.85159922960E+02  0.19342590278E+03  0.17300000000E+03 0. -1.
        6    1    1    2  503    0 -0.16593363828E+03 -0.64377107147E+02 -0.23948741939E+03  0.34490811572E+03  0.17300000000E+03 0.  1.
       -6    1    1    2    0  501  0.10514150928E+03  0.69853391393E+02 -0.18653443935E+03  0.28400410266E+03  0.17300000000E+03 0.  1.
</event>
<event>
 6   0  0.4500850E-05  0.4233984E+03  0.7546771E-02  0.1042910E+00
       21   -1    0    0  501  503  0.00000000000E+00  0.00000000000E+00  0.11698626797E+04  0.11698626797E+04  0.00000000000E+00 0.  1.
       21   -1    0    0  502  504  0.00000000000E+00  0.00000000000E+00 -0.33080326105E+04  0.33080326105E+04  0.00000000000E+00 0. -1.
        6    1    1    2  501    0 -0.34357201984E+02 -0.44546826321E+03  0.28563869564E+03  0.55780001372E+03  0.17300000000E+03 0.  1.
       -6    1    1    2    0  504  0.49769185812E+02  0.21671688986E+03 -0.28370000966E+04  0.28509545297E+04  0.17300000000E+03 0. -1.
        6    1    1    2  502    0 -0.17416057428E+03 -0.29202496666E+03  0.30338312289E+03  0.48742261543E+03  0.17300000000E+03 0.  1.
       -6    1    1    2    0  503  0.15874859045E+03  0.52077634001E+03  0.10980834724E+03  0.58171813141E+03  0.17300000000E+03 0.  1.
</event>
<event>
 6   0  0.4500850E-05  0.2527652E+03  0.7546771E-02  0.1121735E+00
       21   -1    0    0  504  503  0.00000000000E+00  0.00000000000E+00  0.82784699806E+03  0.82784699806E+03  0.00000000000E+00 0.  1.
       21   -1    0    0  502  504  0.00000000000E+00  0.00000000000E+00 -0.52464053286E+03  0.52464053286E+03  0.00000000000E+00 0.  1.
        6    1    1    2  501    0 -0.27112412494E+03  0.16794269129E+03  0.23375646879E+03  0.43160644733E+03  0.17300000000E+03 0.  1.
       -6    1    1    2    0  503  0.91126064513E+02 -0.10464796325E+03  0.31070995339E+03  0.38173921855E+03  0.17300000000E+03 0.  1.
        6    1    1    2  502    0  0.60897679596E+02 -0.68313356100E+02 -0.26310589736E+03  0.32791607955E+03  0.17300000000E+03 0. -1.
       -6    1    1    2    0  501  0.11910038083E+03  0.50186280649E+01  0.21845940386E+02  0.21122578548E+03  0.17300000000E+03 0.  1.
</event>
<event>
 6   0  0.4500850E-05  0.3474595E+03  0.7546771E-02  0.1066274E+00
       21   -1    0    0  501  503  0.00000000000E+00  0.00000000000E+00  0.79498075665E+03  0.79498075665E+03  0.00000000000E+00 0.  1.
       21   -1    0    0  502  504  0.00000000000E+00  0.00000000000E+00 -0.14612688672E+04  0.14612688672E+04  0.00000000000E+00 0.  1.
        6    1    1    2  501    0 -0.48559824264E+02  0.16855416954E+03  0.22705135516E+03  0.33503713597E+03  0.17300000000E+03 0.  1.
       -6    1    1    2    0  503 -0.17295879847E+03 -0.36645509620E+03 -0.61832793132E+03  0.75925128525E+03  0.17300000000E+03 0.  1.
        6    1    1    2  502    0 -0.15230919130E+03 -0.94764330278E+01 -0.56972752208E+03  0.61465953336E+03  0.17300000000E+03 0.  1.
       -6    1    1    2    0  504  0.37382781404E+03  0.20737735969E+03  0.29471598765E+03  0.54730166932E+03  0.17300000000E+03 0. -1.
</event>
<event>
 6   0  0.4500850E-05  0.4361206E+03  0.7546771E-02  0.1055546E+00
       21   -1    0    0  502  503  0.00000000000E+00  0.00000000000E+00  0.68327726081E+03  0.68327726081E+03  0.00000000000E+00 0.  1.
       21   -1    0    0  501  504  0.00000000000E+00  0.00000000000E+00 -0.45102201695E+03  0.45102201695E+03  0.00000000000E+00 0. -1.
        6    1    1    2  501    0  0.33157269755E+03  0.61888701175E+02  0.19966803322E+03  0.42844718296E+03  0.17300000000E+03 0.  1.
       -6    1    1    2    0  504  0.37703449260E+02 -0.82633138486E+02  0.81537941600E+01  0.19556397936E+03  0.17300000000E+03 0. -1.
        6    1    1    2  502    0 -0.17421226222E+03  0.80287924556E+01 -0.15854024931E+02  0.24615995597E+03  0.17300000000E+03 0. -1.
       -6    1    1    2    0  503 -0.19506388460E+03  0.12715644855E+02  0.40287441407E+02  0.26412815949E+03  0.17300000000E+03 0.  1.
</event>
<event>
 6   0  0.4500850E-05  0.1882485E+03  0.7546771E-02  0.1160718E+00
       21   -1    0    0  504  503  0.00000000000E+00  0.00000000000E+00  0.12012925825E+04  0.12012925825E+04  0.00000000000E+00 0. -1.
       21   -1    0    0  501  504  0.00000000000E+00  0.00000000000E+00 -0.26245948433E+03  0.26245948433E+03  0.00000000000E+00 0. -1.
        6    1    1    2  501    0 -0.85716243554E+02  0.15924944102E+02 -0.25543630550E+02  0.19540305861E+03  0.17300000000E+03 0. -1.
       -6    1    1    2    0  502  0.94271228740E+01  0.58008426907E+02  0.45478240915E+02  0.18828467446E+03  0.17300000000E+03 0.  1.
        6    1    1    2  502    0  0.15573395161E+02 -0.98474315121E+02  0.70528249074E+02  0.21176155291E+03  0.17300000000E+03 0.  1.
       -6    1    1    2    0  503  0.60715725520E+02  0.24540944112E+02  0.84837023876E+03  0.86830278088E+03  0.17300000000E+03 0. -1.
</event>
<event>
 6   0  0.4500850E-05  0.2328161E+03  0.7546771E-02  0.1133878E+00
       21   -1    0    0  502  503  0.00000000000E+00  0.00000000000E+00  0.58675562645E+03  0.58675562645E+03  0.00000000000E+00 0.  1.
       21   -1    0    0  501  504  0.00000000000E+00  0.00000000000E+00 -0.36351858430E+03  0.36351858430E+03  0.00000000000E+00 0. -1.
        6    1    1    2  501    0  0.63782705269E+02  0.21695490884E+02 -0.31649216544E+02  0.18833374823E+03  0.17300000000E+03 0. -1.
       -6    1    1    2    0  503  0.12031481644E+03  0.84821607307E+02  0.10399333716E+03  0.24982788935E+03  0.17300000000E+03 0. -1.
        6    1    1    2  502    0 -0.18286694306E+03  0.17389316663E+02  0.16057781528E+03  0.29909353380E+03  0.17300000000E+03 0.  1.
       -6    1    1    2    0  504 -0.12305786496E+01 -0.12390641485E+03 -0.96848937482E+01  0.21301903937E+03  0.17300000000E+03 0. -1.
</event>
<event>
 6   0  0.4500850E-05  0.4219831E+03  0.7546771E-02  0.1060783E+00
       21   -1    0    0  501  503  0.00000000000E+00  0.00000000000E+00  0.17754096807E+04  0.17754096807E+04  0.00000000000E+00 0.  1.
       21   -1    0    0  503  504  0.00000000000E+00  0.00000000000E+00 -0.40881261563E+03  0.40881261563E+03  0.00000000000E+00 0. -1.
        6    1    1    2  501    0 -0.11175741333E+03  0.41893223841E+02  0.40559246605E+03  0.45681397762E+03  0.17300000000E+03 0.  1.
       -6    1    1    2    0  502 -0.31968931238E+03  0.19591477941E+02  0.32010614206E+03  0.48474944522E+03  0.17300000000E+03 0.  1.
        6    1    1    2  502    0  0.11512000639E+03  0.36931775208E+03  0.48956018508E+02  0.42658400066E+03  0.17300000000E+03 0. -1.
       -6    1    1    2    0  504  0.31632671932E+03 -0.43080245386E+03  0.59194243842E+03  0.81607487280E+03  0.17300000000E+03 0. -1.
</event>
<event>
 6   0  0.4500850E-05  0.6641964E+03  0.7546771E-02  0.9780499E-01
       -1   -1    0    0    0  501  0.00000000000E+00  0.00000000000E+00  0.16112851873E+04  0.16112851873E+04  0.00000000000E+00 0. -1.
        1   -1    0    0  503    0  0.00000000000E+00  0.00000000000E+00 -0.86497765667E+03  0.86497765667E+03  0.00000000000E+00 0.  1.
        6    1    1    2  502    0 -0.11205250613E+03  0.34556024673E+03 -0.56226098572E+02  0.40627333461E+03  0.17300000000E+03 0.  1.
       -6    1    1    2    0  501 -0.55162182166E+02  0.15983194458E+03 -0.28514110306E+03  0.37392989383E+03  0.17300000000E+03 0. -1.
        6    1    1    2  503    0  0.17476647918E+03 -0.83248213147E+02 -0.20142265456E+03  0.32859347682E+03  0.17300000000E+03 0.  1.
       -6    1    1    2    0  502 -0.75517908845E+01 -0.42214397816E+03  0.12890973868E+04  0.13674661387E+04  0.17300000000E+03 0. -1.
</event>
<event>
 6   0  0.4500850E-05  0.2556093E+03  0.7546771E-02  0.1120056E+00
       21   -1    0    0  501  503  0.00000000000E+00  0.00000000000E+00  0.11036944691E+04  0.11036944691E+04  0.00000000000E+00 0.  1.
       21   -1    0    0  502  504  0.00000000000E+00  0.00000000000E+00 -0.41867828228E+03  0.41867828228E+03  0.00000000000E+00 0.  1.
        6    1    1    2  501    0 -0.99917775608E+02  0.31454592236E+02  0.52800485318E+03  0.56541230818E+03  0.17300000000E+03 0.  1.
       -6    1    1    2    0  504 -0.55763213643E+02  0.76884306656E+02  0.16252111301E+03  0.25566158252E+03  0.17300000000E+03 0. -1.
        6    1    1    2  502    0  0.86130666384E+02  0.15984742213E+03 -0.20032333711E+03  0.32097995177E+03  0.17300000000E+03 0.  1.
       -6    1    1    2    0  503  0.69550322866E+02 -0.26818632102E+03  0.19481355773E+03  0.38031890890E+03  0.17300000000E+03 0.  1.
</event>
<event>
 6   0  0.4500850E-05  0.6576103E+03  0.7546771E-02  0.9872861E-01
       21   -1    0    0  504  503  0.00000000000E+00  0.00000000000E+00  0.29536270368E+03  0.29536270368E+03  0.00000000000E+00 0.  1.
       21   -1    0    0  502  504  0.00000000000E+00  0.00000000000E+00 -0.36320847195E+04  0.36320847195E+04  0.00000000000E+00 0. -1.
        6    1    1    2  501    0 -0.11231968068E+03 -0.16387917421E+03 -0.37767588762E+03  0.46047819764E+03  0.17300000000E+03 0.  1.
       -6    1    1    2    0  501  0.19979205645E+03  0.62009712177E+03 -0.65837821446E+03  0.94224634757E+03  0.17300000000E+03 0.  1.
        6    1    1    2  502    0  0.20109038149E+03 -0.43105619395E+03 -0.20301035513E+04  0.20922466902E+04  0.17300000000E+03 0. -1.
       -6    1    1    2    0  503 -0.28856275726E+03 -0.25161753610E+02 -0.27056436246E+03  0.43247618773E+03  0.17300000000E+03 0.  1.
</event>
<event>
 6   0  0.4500850E-05  0.2210720E+03  0.7546771E-02  0.1133400E+00
       21   -1    0    0  502  503  0.00000000000E+00  0.00000000000E+00  0.38581165422E+03  0.38581165422E+03  0.00000000000E+00 0. -1.
       21   -1    0    0  503  504  0.00000000000E+00  0.00000000000E+00 -0.10119586009E+04  0.10119586009E+04  0.00000000000E+00 0. -1.
        6    1    1    2  501    0 -0.42643356647E+01 -0.78253569806E+02 -0.11834576472E+03  0.22377784916E+03  0.17300000000E+03 0. -1.
       -6    1    1    2    0  504  0.17529676824E+03  0.11370330347E+03 -0.62304304511E+03  0.67953589621E+03  0.17300000000E+03 0. -1.
        6    1    1    2  502    0  0.61597354789E+01  0.90527200928E+02  0.46305004885E+01  0.19540613599E+03  0.17300000000E+03 0. -1.
       -6    1    1    2    0  501 -0.17719216805E+03 -0.12597693459E+03  0.11061136269E+03  0.29905037372E+03  0.17300000000E+03 0. -1.
</event>
<event>
 6   0  0.4500850E-05  0.5912965E+03  0.7546771E-02  0.1022877E+00
       21   -1    0    0  502  503  0.00000000000E+00  0.00000000000E+00  0.73273690130E+03  0.73273690130E+03  0.00000000000E+00 0.  1.
       21   -1    0    0  501  504  0.00000000000E+00  0.00000000000E+00 -0.12048604238E+04  0.12048604238E+04  0.00000000000E+00 0. -1.
        6    1    1    2  501    0 -0.27676598552E+03 -0.54325738030E+03 -0.54955309422E+03  0.83884777842E+03  0.17300000000E+03 0. -1.
       -6    1    1    2    0  503  0.38372409080E+03  0.35489802744E+03 -0.16207353475E+03  0.57392823454E+03  0.17300000000E+03 0.  1.
        6    1    1    2  502    0  0.40444152348E+02  0.15776536476E+03  0.12584416702E+03  0.26887058997E+03  0.17300000000E+03 0.  1.
       -6    1    1    2    0  504 -0.14740225763E+03  0.30593988100E+02  0.11365893946E+03  0.25595072217E+03  0.17300000000E+03 0.  1.
</event>
<event>
 6   0  0.4500850E-05  0.6720925E+03  0.7546771E-02  0.9959760E-01
       21   -1    0    0  502  503  0.00000000000E+00  0.00000000000E+00  0.16104730198E+04  0.16104730198E+04  0.00000000000E+00 0. -1.
       21   -1    0    0  501  504  0.00000000000E+00  0.00000000000E+00 -0.53493542144E+03  0.53493542144E+03  0.00000000000E+00 0.  1.
        6    1    1    2  501    0 -0.20153174064E+02 -0.40976483321E+03  0.34141046133E+03  0.56107349970E+03  0.17300000000E+03 0.  1.
       -6    1    1    2    0  503 -0.19278833307E+03 -0.24831774071E+03  0.70858466895E+03  0.79426083549E+03  0.17300000000E+03 0. -1.
        6    1    1    2  502    0  0.11526850195E+03  0.47589822227E+03  0.11122636236E+00  0.51932163239E+03  0.17300000000E+03 0.  1.
       -6    1    1    2    0  504  0.97673005183E+02  0.18218435166E+03  0.25431241703E+02  0.27075247364E+03  0.17300000000E+03 0.  1.
</event>
<event>
 6   0  0.4500850E-05  0.2286183E+03  0.7546771E-02  0.1137160E+00
       21   -1    0    0  502  503  0.00000000000E+00  0.00000000000E+00  0.17634671836E+03  0.17634671836E+03  0.00000000000E+00 0. -1.
       21   -1    0    0  501  504  0.00000000000E+00  0.00000000000E+00 -0.13096033871E+04  0.13096033871E+04  0.00000000000E+00 0.  1.
        6    1    1    2  501    0  0.36159647559E+01 -0.53205053267E+02 -0.68240460039E+02  0.19346734422E+03  0.17300000000E+03 0. -1.
       -6    1    1    2    0  503 -0.13781454015E+02  0.73564505648E+02 -0.17397332243E+03  0.25651000348E+03  0.17300000000E+03 0. -1.
        6    1    1    2  502    0 -0.39205860531E+02 -0.14859741653E+03 -0.72086757017E+03  0.75709797610E+03  0.17300000000E+03 0.  1.
       -6    1    1    2    0  504  0.49371349790E+02  0.12823796415E+03 -0.17017531605E+03  0.27887478161E+03  0.17300000000E+03 0. -1.
</event>
<event>
 6   0  0.4500850E-05  0.2439334E+03  0.7546771E-02  0.1120718E+00
       21   -1    0    0  501  503  0.00000000000E+00  0.00000000000E+00  0.72668648045E+03  0.72668648045E+03  0.00000000000E+00 0.  1.
       21   -1    0    0  503  504  0.00000000000E+00  0.00000000000E+00 -0.59498907822E+03  0.59498907822E+03  0.00000000000E+00 0.  1.
        6    1    1    2  501    0  0.72928694647E+02 -0.12069902364E+03  0.38721166755E+03  0.44693257243E+03  0.17300000000E+03 0.  1.
       -6    1    1    2    0  504  0.63199446857E+02 -0.20430216033E+03 -0.58858575726E+02  0.28129499593E+03  0.17300000000E+03 0. -1.
        6    1    1    2  502    0 -0.11299251327E+03  0.22783241128E+03  0.76989989968E+01  0.30767383748E+03  0.17300000000E+03 0. -1.
       -6    1    1    2    0  502 -0.23135628235E+02  0.97168772694E+02 -0.20435468858E+03  0.28577415283E+03  0.17300000000E+03 0.  1.
</event>
<event>
 6   0  0.4500850E-05  0.2544230E+03  0.7546771E-02  0.1119642E+00
       21   -1    0    0  502  503  0.00000000000E+00  0.00000000000E+00  0.75690969021E+03  0.75690969021E+03  0.00000000000E+00 0. -1.
       21   -1    0    0  501  504  0.00000000000E+00  0.00000000000E+00 -0.43262756963E+03  0.43262756963E+03  0.00000000000E+00 0.  1.
        6    1    1    2  501    0  0.19059125425E+03 -0.87566005539E+01 -0.15084872195E+03  0.29847284829E+03  0.17300000000E+03 0.  1.
       -6    1    1    2    0  503 -0.17348123688E+03 -0.57182449199E+02  0.15867744327E+03  0.29744428562E+03  0.17300000000E+03 0.  1.
        6    1    1    2  502    0  0.99440785968E+02 -0.32775002106E+02  0.30061711788E+03  0.36230142457E+03  0.17300000000E+03 0. -1.
       -6    1    1    2    0  504 -0.11655080334E+03  0.98714051859E+02  0.15836281378E+02  0.23131870137E+03  0.17300000000E+03 0.  1.
</event>
<event>
 6   0  0.4500850E-05  0.7903505E+03  0.7546771E-02  0.9574090E-01
       -1   -1    0    0    0  501  0.00000000000E+00  0.00000000000E+00  0.54924527869E+03  0.54924527869E+03  0.00000000000E+00 0. -1.
        1   -1    0    0  502    0  0.00000000000E+00  0.00000000000E+00 -0.16750686686E+04  0.16750686686E+04  0.00000000000E+00 0.  1.
        6    1    1    2  502    0  0.65078311883E+02  0.37295043708E+02 -0.27443848837E+03  0.33297385913E+03  0.17300000000E+03 0. -1.
       -6    1    1    2    0  501 -0.71181743149E+01  0.37091569682E+02 -0.67967026479E+03  0.70235825744E+03  0.17300000000E+03 0.  1.
        6    1    1    2  503    0  0.47474751283E+02 -0.55806728708E+03  0.10582503989E+03  0.59566843796E+03  0.17300000000E+03 0. -1.
       -6    1    1    2    0  503 -0.10543488885E+03  0.48368067369E+03 -0.27753967660E+03  0.59331339271E+03  0.17300000000E+03 0.  1.
</event>
<event>
 6   0  0.4500850E-05  0.2382309E+03  0.7546771E-02  0.1129638E+00
       21   -1    0    0  504  503  0.00000000000E+00  0.00000000000E+00  0.41765794043E+03  0.41765794043E+03  0.00000000000E+00 0.  1.
       21   -1    0    0  502  504  0.00000000000E+00  0.00000000000E+00 -0.98545804193E+03  0.98545804193E+03  0.00000000000E+00 0. -1.
        6    1    1    2  501    0 -0.74632914593E+02 -0.99649383864E+02 -0.33738109881E+03  0.39906776051E+03  0.17300000000E+03 0.  1.
       -6    1    1    2    0  503  0.16043815092E+03 -0.11116288938E+03  0.18469268167E+02  0.26147218229E+03  0.17300000000E+03 0.  1.
        6    1    1    2  502    0 -0.63678767944E+02  0.78979958987E+01 -0.39625535036E+03  0.43710944455E+03  0.17300000000E+03 0. -1.
       -6    1    1    2    0  501 -0.22126468381E+02  0.20291427735E+03  0.14736707950E+03  0.30546659502E+03  0.17300000000E+03 0.  1.
</event>
<event>
 6   0  0.4500850E-05  0.3579309E+03  0.7546771E-02  0.1061174E+00
       21   -1    0    0  504  503  0.00000000000E+00  0.00000000000E+00  0.28655133953E+04  0.28655133953E+04  0.00000000000E+00 0. -1.
       21   -1    0    0  501  504  0.00000000000E+00  0.00000000000E+00 -0.74142625993E+03  0.74142625993E+03  0.00000000000E+00 0. -1.
        6    1    1    2  501    0  0.11491017695E+03 -0.11321417238E+03 -0.27085052566E+03  0.35959811574E+03  0.17300000000E+03 0. -1.
       -6    1    1    2    0  502 -0.58997391616E+03  0.36637128196E+02 -0.47499769273E+02  0.61773516088E+03  0.17300000000E+03 0. -1.
        6    1    1    2  502    0 -0.12533647060E+03  0.10418926125E+03  0.23106038663E+03  0.33148534702E+03  0.17300000000E+03 0.  1.
       -6    1    1    2    0  503  0.60040020981E+03 -0.27612217063E+02  0.22113770437E+04  0.22981210316E+04  0.17300000000E+03 0. -1.
</event>
<event>
 6   0  0.4500850E-05  0.2004201E+03  0.7546771E-02  0.1152362E+00
       21   -1    0    0  502  503  0.00000000000E+00  0.00000000000E+00  0.57114565983E+03  0.57114565983E+03  0.00000000000E+00 0. -1.
       21   -1    0    0  501  504  0.00000000000E+00  0.00000000000E+00 -0.10763353219E+04  0.10763353219E+04  0.00000000000E+00 0.  1.
        6    1    1    2  501    0 -0.11112843753E+02 -0.13712794701E+03  0.10856877393E+03  0.24625951315E+03  0.17300000000E+03 0. -1.
       -6    1    1    2    0  504  0.60391728317E+02  0.10832657510E+03 -0.16501116917E+03  0.26933156828E+03  0.17300000000E+03 0. -1.
        6    1    1    2  502    0  0.17067262370E+02  0.46898422404E+01  0.30730103196E+03  0.35309518590E+03  0.17300000000E+03 0. -1.
       -6    1    1    2    0  503 -0.66346146935E+02  0.24111529672E+02 -0.75604829876E+03  0.77879471437E+03  0.17300000000E+03 0.  1.
</event>
<event>
 6   0  0.4500850E-05  0.3231524E+03  0.7546771E-02  0.1084591E+00
       21   -1    0    0  501  503  0.00000000000E+00  0.00000000000E+00  0.13039536456E+04  0.13039536456E+04  0.00000000000E+00 0. -1.
       21   -1    0    0  503  504  0.00000000000E+00  0.00000000000E+00 -0.36700066726E+03  0.36700066726E+03  0.00000000000E+00 0. -1.
        6    1    1    2  501    0  0.20607545608E+03 -0.96637848483E+02  0.40659772461E+03  0.49704796249E+03  0.17300000000E+03 0.  1.
       -6    1    1    2    0  502  0.45569715643E+02  0.40504688253E+03  0.30065783215E+03  0.53522304515E+03  0.17300000000E+03 0. -1.
        6    1    1    2  502    0 -0.15195410587E+03 -0.24477421368E+03  0.26268393722E+03  0.42653993582E+03  0.17300000000E+03 0. -1.
       -6    1    1    2    0  504 -0.99691065858E+02 -0.63634820370E+02 -0.32986515619E+02  0.21214336942E+03  0.17300000000E+03 0.  1.
</event>
<event>
 6   0  0.4500850E-05  0.2897887E+03  0.7546771E-02  0.1109741E+00
       21   -1    0    0  501  503  0.00000000000E+00  0.00000000000E+00  0.77499615893E+03  0.77499615893E+03  0.00000000000E+00 0.  1.
       21   -1    0    0  502  504  0.00000000000E+00  0.00000000000E+00 -0.70698727308E+03  0.70698727308E+03  0.00000000000E+00 0.  1.
        6    1    1    2  501    0 -0.25276049455E+02 -0.17618946120E+02  0.43497019746E+03  0.46912405461E+03  0.17300000000E+03 0.  1.
       -6    1    1    2    0  503  0.92960049008E+02 -0.21316186199E+03 -0.43348739894E+03  0.52145937058E+03  0.17300000000E+03 0.  1.
        6    1    1    2  502    0 -0.12939789740E+03  0.19607101241E+03 -0.35460682655E+01  0.29176914223E+03  0.17300000000E+03 0.  1.
       -6    1    1    2    0  504  0.61713897842E+02  0.34709795703E+02  0.70072155600E+02  0.19963086459E+03  0.17300000000E+03 0.  1.
</event>
<event>
 6   0  0.4500850E-05  0.4129210E+03  0.7546771E-02  0.1059684E+00
       21   -1    0    0  504  503  0.00000000000E+00  0.00000000000E+00  0.25585567439E+04  0.25585567439E+04  0.00000000000E+00 0. -1.
       21   -1    0    0  502  504  0.00000000000E+00  0.00000000000E+00 -0.15306694761E+03  0.15306694761E+03  0.00000000000E+00 0. -1.
        6    1    1    2  501    0 -0.12347143764E+03 -0.91305021836E+02  0.10853408606E+04  0.11097186970E+04  0.17300000000E+03 0.  1.
       -6    1    1    2    0  501  0.41186447669E+02  0.11374631957E+03  0.15798693123E+03  0.26367293970E+03  0.17300000000E+03 0. -1.
        6    1    1    2  502    0 -0.75323221390E+00  0.11527969098E+03  0.67797696203E+02  0.21866756074E+03  0.17300000000E+03 0. -1.
       -6    1    1    2    0  503  0.83038222188E+02 -0.13772098872E+03  0.10943643083E+04  0.11195644940E+04  0.17300000000E+03 0. -1.
</event>
<event>
 6   0  0.4500850E-05  0.5587628E+03  0.7546771E-02  0.1032153E+00
       21   -1    0    0  502  503  0.00000000000E+00  0.00000000000E+00  0.98241180623E+03  0.98241180623E+03  0.00000000000E+00 0. -1.
       21   -1    0    0  503  504  0.00000000000E+00  0.00000000000E+00 -0.12826763198E+04  0.12826763198E+04  0.00000000000E+00 0.  1.
        6    1    1    2  501    0  0.10850020358E+03  0.27780628079E+02 -0.82896154848E+02  0.22213696217E+03  0.17300000000E+03 0.  1.
       -6    1    1    2    0  504 -0.19789360490E+03 -0.95706751233E+02 -0.60989198231E+03  0.67098352526E+03  0.17300000000E+03 0.  1.
        6    1    1    2  502    0  0.93453050351E+02  0.58237524293E+03 -0.11906028090E+03  0.62609803281E+03  0.17300000000E+03 0. -1.
       -6    1    1    2    0  501 -0.40596490262E+01 -0.51444911978E+03  0.51158390445E+03  0.74586960582E+03  0.17300000000E+03 0. -1.
</event>
<event>
 6   0  0.4500850E-05  0.5850412E+03  0.7546771E-02  0.9936936E-01
        2   -1    0    0  503    0  0.00000000000E+00  0.00000000000E+00  0.10026224946E+04  0.10026224946E+04  0.00000000000E+00 0.  1.
       -2   -1    0    0    0  501  0.00000000000E+00  0.00000000000E+00 -0.66822454084E+03  0.66822454084E+03  0.00000000000E+00 0. -1.
        6    1    1    2  502    0  0.14573924643E+03 -0.14977049816E+03  0.43023756888E+03  0.50863001852E+03  0.17300000000E+03 0.  1.
       -6    1    1    2    0  502  0.78342719188E+02 -0.26905884781E+03 -0.30644790719E+03  0.44985504893E+03  0.17300000000E+03 0. -1.
        6    1    1    2  503    0  0.36340996064E+02  0.37159674656E+02  0.10099485899E+03  0.20695523902E+03  0.17300000000E+03 0.  1.
       -6    1    1    2    0  501 -0.26042296168E+03  0.38166967131E+03  0.10961343308E+03  0.50540672896E+03  0.17300000000E+03 0.  1.
</event>
<event>
 6   0  0.4500850E-05  0.3778839E+03  0.7546771E-02  0.1065529E+00
       21   -1    0    0  502  503  0.00000000000E+00  0.00000000000E+00  0.47097140869E+03  0.47097140869E+03  0.00000000000E+00 0. -1.
       21   -1    0    0  501  504  0.00000000000E+00  0.00000000000E+00 -0.20555532045E+04  0.20555532045E+04  0.00000000000E+00 0. -1.
        6    1    1    2  501    0 -0.18332080065E+03  0.47397582957E+02 -0.44074790645E+03  0.50994192205E+03  0.17300000000E+03 0. -1.
       -6    1    1    2    0  504  0.21284955796E+03 -0.71395108460E+02 -0.24029299104E+03  0.37158029735E+03  0.17300000000E+03 0.  1.
        6    1    1    2  502    0  0.18079089453E+03  0.28357331131E+03  0.23544358680E+03  0.44549057565E+03  0.17300000000E+03 0. -1.
       -6    1    1    2    0  503 -0.21031965184E+03 -0.25957578580E+03 -0.11389844852E+04  0.11995118182E+04  0.17300000000E+03 0. -1.
</event>
<event>
 6   0  0.4500850E-05  0.2399308E+03  0.7546771E-02  0.1122568E+00
       21   -1    0    0  502  503  0.00000000000E+00  0.00000000000E+00  0.10426176785E+04  0.10426176785E+04  0.00000000000E+00 0. -1.
       21   -1    0    0  501  504  0.00000000000E+00  0.00000000000E+00 -0.38897925935E+03  0.38897925935E+03  0.00000000000E+00 0. -1.
        6    1    1    2  501    0  0.10299210263E+03  0.12439497863E+01  0.17155060399E+03  0.26451376211E+03  0.17300000000E+03 0. -1.
       -6    1    1    2    0  503  0.16540688034E+03 -0.85316546877E+02 -0.26939272232E+02  0.25552509392E+03  0.17300000000E+03 0. -1.
        6    1    1    2  502    0 -0.31280242692E+03  0.11156639456E+02  0.59981989262E+03  0.69834284737E+03  0.17300000000E+03 0. -1.
       -6    1    1    2    0  504  0.44403443958E+02  0.72915957635E+02 -0.90792805250E+02  0.21321523444E+03  0.17300000000E+03 0. -1.
</event>
<event>
 6   0  0.4500850E-05  0.5330893E+03  0.7546771E-02  0.1042859E+00
       21   -1    0    0  502  503  0.00000000000E+00  0.00000000000E+00  0.14009111540E+04  0.14009111540E+04  0.00000000000E+00 0. -1.
       21   -1    0    0  503  504  0.00000000000E+00  0.00000000000E+00 -0.24934224538E+03  0.24934224538E+03  0.00000000000E+00 0. -1.
        6    1    1    2  501    0 -0.14434710560E+03 -0.72784920014E+02  0.13801815288E+03  0.27406521487E+03  0.17300000000E+03 0. -1.
       -6    1    1    2    0  504 -0.20314531143E+03  0.11788242534E+03  0.12610091380E+03  0.31779667119E+03  0.17300000000E+03 0. -1.
        6    1    1    2  502    0 -0.13502457212E+02 -0.22894126160E+01  0.28993437546E+03  0.33790309238E+03  0.17300000000E+03 0.  1.
       -6    1    1    2    0  501  0.36099487424E+03 -0.42808092712E+02  0.59751546647E+03  0.72048842093E+03  0.17300000000E+03 0. -1.
</event>
<event>
 6   0  0.4500850E-05  0.4349697E+03  0.7546771E-02  0.1051763E+00
       21   -1    0    0  502  503  0.00000000000E+00  0.00000000000E+00  0.14703136009E+04  0.14703136009E+04  0.00000000000E+00 0.  1.
       21   -1    0    0  501  504  0.00000000000E+00  0.00000000000E+00 -0.30246523154E+03  0.30246523154E+03  0.00000000000E+00 0. -1.
        6    1    1    2  501    0  0.97017702617E+01 -0.29053512541E+03  0.59690816946E+03  0.68609995352E+03  0.17300000000E+03 0.  1.
       -6    1    1    2    0  504 -0.12294012486E+02 -0.11750094686E+03 -0.77498695679E+02  0.22336665617E+03  0.17300000000E+03 0. -1.
        6    1    1    2  502    0 -0.29053102589E+02  0.29977802366E+03  0.30337319237E+03  0.46116725825E+03  0.17300000000E+03 0. -1.
       -6    1    1    2    0  503  0.31645344813E+02  0.10825804862E+03  0.34506570316E+03  0.40214496445E+03  0.17300000000E+03 0. -1.
</event>
<event>
 6   0  0.4500850E-05  0.2896658E+03  0.7546771E-02  0.1097515E+00
       21   -1    0    0  502  503  0.00000000000E+00  0.00000000000E+00  0.78946244002E+03  0.78946244002E+03  0.00000000000E+00 0. -1.
       21   -1    0    0  501  504  0.00000000000E+00  0.00000000000E+00 -0.59904660729E+03  0.59904660729E+03  0.00000000000E+00 0.  1.
        6    1    1    2  501    0  0.15171884924E+03  0.82172917749E+02 -0.13528102451E+03  0.27928650741E+03  0.17300000000E+03 0.  1.
       -6    1    1    2    0  504  0.34286629524E+01  0.11430913082E+03  0.67220684555E+02  0.21800448058E+03  0.17300000000E+03 0. -1.
        6    1    1    2  502    0 -0.30272009463E+03  0.11915706428E+03 -0.78280780648E+02  0.37668918524E+03  0.17300000000E+03 0.  1.
       -6    1    1    2    0  503  0.14757258243E+03 -0.31563911285E+03  0.33675695333E+03  0.51452887408E+03  0.17300000000E+03 0.  1.
</event>
<event>
 6   0  0.4500850E-05  0.4111103E+03  0.7546771E-02  0.1066690E+00
       21   -1    0    0  502  503  0.00000000000E+00  0.00000000000E+00  0.10868734229E+04  0.10868734229E+04  0.00000000000E+00 0. -1.
       21   -1    0    0  501  504  0.00000000000E+00  0.00000000000E+00 -0.99241559629E+03  0.99241559629E+03  0.00000000000E+00 0. -1.
        6    1    1    2  501    0 -0.29876710025E+03 -0.21392739664E+03 -0.74238280255E+03  0.84621979222E+03  0.17300000000E+03 0. -1.
       -6    1    1    2    0  504  0.10350435724E+03 -0.82355436503E+02  0.25477619907E+03  0.33516485720E+03  0.17300000000E+03 0. -1.
        6    1    1    2  502    0 -0.64095440503E+02 -0.56291274254E+02  0.27517185353E+03  0.33604386920E+03  0.17300000000E+03 0.  1.
       -6    1    1    2    0  503  0.25935818351E+03  0.35257410740E+03  0.30689257656E+03  0.56186050058E+03  0.17300000000E+03 0.  1.
</event>
<event>
 6   0  0.4500850E-05  0.2345963E+03  0.7546771E-02  0.1129114E+00
       21   -1    0    0  502  503  0.00000000000E+00  0.00000000000E+00  0.54934061167E+03  0.54934061167E+03  0.00000000000E+00 0. -1.
       21   -1    0    0  501  504  0.00000000000E+00  0.00000000000E+00 -0.78717541165E+03  0.78717541165E+03  0.00000000000E+00 0. -1.
        6    1    1    2  501    0 -0.35878157777E+02  0.18972886483E+03  0.20330638830E+03  0.32946437119E+03  0.17300000000E+03 0. -1.
       -6    1    1    2    0  504  0.21287384552E+03 -0.44759294961E+02 -0.45702944315E+03  0.53490520702E+03  0.17300000000E+03 0. -1.
        6    1    1    2  502    0 -0.72629060420E+02 -0.58252769780E+02 -0.10339323547E+03  0.22200794298E+03  0.17300000000E+03 0. -1.
       -6    1    1    2    0  503 -0.10436662732E+03 -0.86716800093E+02  0.11928149033E+03  0.25013850214E+03  0.17300000000E+03 0. -1.
</event>
<event>
 6   0  0.4500850E-05  0.2744379E+03  0.7546771E-02  0.1108032E+00
       21   -1    0    0  501  503  0.00000000000E+00  0.00000000000E+00  0.12291466611E+04  0.12291466611E+04  0.00000000000E+00 0. -1.
       21   -1    0    0  503  504  0.00000000000E+00  0.00000000000E+00 -0.92789342568E+03  0.92789342568E+03  0.00000000000E+00 0.  1.
        6    1    1    2  501    0  0.10839016170E+03  0.99811631980E+02  0.53005256778E+02  0.23334383703E+03  0.17300000000E+03 0.  1.
       -6    1    1    2    0  504  0.93913532985E+02 -0.20072668670E+03 -0.21055292924E+03  0.35124420343E+03  0.17300000000E+03 0.  1.
        6    1    1    2  502    0 -0.10181960657E+03  0.18264071425E+03 -0.51114296318E+03  0.57872358825E+03  0.17300000000E+03 0.  1.
       -6    1    1    2    0  502 -0.10048408812E+03 -0.81725659529E+02  0.96994387104E+03  0.99372845806E+03  0.17300000000E+03 0. -1.
</event>
<event>
 6   0  0.4500850E-05  0.4947810E+03  0.7546771E-02  0.1033375E+00
       21   -1    0    0  504  503  0.00000000000E+00  0.00000000000E+00  0.14691594978E+04  0.14691594978E+04  0.00000000000E+00 0. -1.
       21   -1    0    0  502  504  0.00000000000E+00  0.00000000000E+00 -0.29849130791E+03  0.29849130791E+03  0.00000000000E+00 0. -1.
        6    1    1    2  501    0  0.41021012058E+02 -0.53352213871E+02  0.29115147716E+03  0.34529315778E+03  0.17300000000E+03 0. -1.
       -6    1    1    2    0  503  0.19698679964E+03 -0.14637039824E+03  0.55497707624E+03  0.63099655139E+03  0.17300000000E+03 0. -1.
        6    1    1    2  502    0 -0.14212766427E+03 -0.17845350436E+03  0.71119174610E+02  0.29501332710E+03  0.17300000000E+03 0. -1.
       -6    1    1    2    0  501 -0.95880147427E+02  0.37817611647E+03  0.25342046188E+03  0.49634776945E+03  0.17300000000E+03 0. -1.
</event>
<event>
 6   0  0.4500850E-05  0.2961584E+03  0.7546771E-02  0.1105212E+00
       21   -1    0    0  501  503  0.00000000000E+00  0.00000000000E+00  0.11161043970E+04  0.11161043970E+04  0.00000000000E+00 0.  1.
       21   -1    0    0  502  504  0.00000000000E+00  0.00000000000E+00 -0.75731179915E+03  0.75731179915E+03  0.00000000000E+00 0.  1.
        6    1    1    2  501    0 -0.19479587459E+03  0.38877867407E+03 -0.50767121144E+03  0.69047327906E+03  0.17300000000E+03 0.  1.
       -6    1    1    2    0  503 -0.48978651257E+01  0.18298736043E+02  0.21563426885E+03  0.27710281617E+03  0.17300000000E+03 0. -1.
        6    1    1    2  502    0  0.17920533569E+03 -0.18417274215E+03  0.49199406199E+03  0.58139599958E+03  0.17300000000E+03 0.  1.
       -6    1    1    2    0  504  0.20488404023E+02 -0.22290466796E+03  0.15883547847E+03  0.32444410138E+03  0.17300000000E+03 0.  1.
</event>
<event>
 6   0  0.4500850E-05  0.7320704E+03  0.7546771E-02  0.9663907E-01
        2   -1    0    0  503    0  0.00000000000E+00  0.00000000000E+00  0.25366901541E+04  0.25366901541E+04  0.00000000000E+00 0. -1.
       -2   -1    0    0    0  501  0.00000000000E+00  0.00000000000E+00 -0.30406814396E+03  0.30406814396E+03  0.00000000000E+00 0.  1.
        6    1    1    2  502    0 -0.39399608559E+02  0.65227928158E+02  0.24458680529E+03  0.30912573023E+03  0.17300000000E+03 0. -1.
       -6    1    1    2    0  502 -0.71061234410E+02 -0.55424111518E+03  0.40379572951E+03  0.71078330310E+03  0.17300000000E+03 0.  1.
        6    1    1    2  503    0 -0.27845865375E+02  0.49602901651E+03  0.14898187016E+04  0.15799711837E+04  0.17300000000E+03 0. -1.
       -6    1    1    2    0  501  0.13830670834E+03 -0.70158294787E+01  0.94420773687E+02  0.24087808107E+03  0.17300000000E+03 0.  1.
</event>
<event>
 6   0  0.4500850E-05  0.1986810E+03  0.7546771E-02  0.1153703E+00
       21   -1    0    0  502  503  0.00000000000E+00  0.00000000000E+00  0.32620278234E+03  0.32620278234E+03  0.00000000000E+00 0.  1.
       21   -1    0    0  501  504  0.00000000000E+00  0.00000000000E+00 -0.10318720421E+04  0.10318720421E+04  0.00000000000E+00 0.  1.
        6    1    1    2  501    0  0.19669910122E+02 -0.71922214168E+02  0.18193918072E+02  0.18926100737E+03  0.17300000000E+03 0.  1.
       -6    1    1    2    0  503 -0.88453895969E+02 -0.20743432188E+02 -0.37801231728E+03  0.42553107255E+03  0.17300000000E+03 0.  1.
        6    1    1    2  502    0  0.10086774052E+03  0.10659803610E+03  0.11169941117E+03  0.25286992868E+03  0.17300000000E+03 0.  1.
       -6    1    1    2    0  504 -0.32083754672E+02 -0.13932389742E+02 -0.45755027172E+03  0.49041281584E+03  0.17300000000E+03 0.  1.
</event>
<event>
 6   0  0.4500850E-05  0.4917413E+03  0.7546771E-02  0.1023406E+00
       21   -1    0    0  501  503  0.00000000000E+00  0.00000000000E+00  0.90493689435E+03  0.90493689435E+03  0.00000000000E+00 0. -1.
       21   -1    0    0  502  504  0.00000000000E+00  0.00000000000E+00 -0.11494369949E+04  0.11494369949E+04  0.00000000000E+00 0.  1.
        6    1    1    2  501    0  0.36635915559E+03  0.26347328995E+03  0.24434898735E+03  0.54154651972E+03  0.17300000000E+03 0. -1.
       -6    1    1    2    0  504 -0.36319997312E+03 -0.22733397151E+01 -0.76959591759E+03  0.86840443626E+03  0.17300000000E+03 0.  1.
        6    1    1    2  502    0 -0.14812219072E+03 -0.23993848751E+03  0.25207762785E+03  0.41591199987E+03  0.17300000000E+03 0. -1.
       -6    1    1    2    0  503  0.14496300824E+03 -0.21261462721E+02  0.28669201817E+02  0.22851093341E+03  0.17300000000E+03 0. -1.
</event>
<event>
 6   0  0.4500850E-05  0.3841817E+03  0.7546771E-02  0.1074996E+00
       21   -1    0    0  501  503  0.00000000000E+00  0.00000000000E+00  0.22479527336E+04  0.22479527336E+04  0.00000000000E+00 0.  1.
       21   -1    0    0  503  504  0.00000000000E+00  0.00000000000E+00 -0.24442609421E+03  0.24442609421E+03  0.00000000000E+00 0. -1.
        6    1    1    2  501    0 -0.16722410924E+03 -0.10110662230E+03  0.14251574460E+03  0.29736541366E+03  0.17300000000E+03 0. -1.
       -6    1    1    2    0  504  0.12922629259E+03 -0.32421435892E+03  0.13413382477E+04  0.13967575594E+04  0.17300000000E+03 0.  1.
        6    1    1    2  502    0  0.25858013315E+02  0.35214152542E+03  0.44990851672E+03  0.59751063940E+03  0.17300000000E+03 0. -1.
       -6    1    1    2    0  502  0.12139803334E+02  0.73179455797E+02  0.69764130407E+02  0.20074521530E+03  0.17300000000E+03 0.  1.
</event>
<event>
 6   0  0.4500850E-05  0.1765017E+03  0.7546771E-02  0.1171479E+00
       21   -1    0    0  501  503  0.00000000000E+00  0.00000000000E+00  0.22667412016E+04  0.22667412016E+04  0.00000000000E+00 0.  1.
       21   -1    0    0  503  504  0.00000000000E+00  0.00000000000E+00 -0.18879758187E+03  0.18879758187E+03  0.00000000000E+00 0.  1.
        6    1    1    2  501    0  0.77767253189E+01 -0.28590542967E+02  0.17771846952E+04  0.17858309936E+04  0.17300000000E+03 0.  1.
       -6    1    1    2    0  502 -0.38978072005E+02 -0.19906225783E+02  0.58868774809E+02  0.18790976709E+03  0.17300000000E+03 0.  1.
        6    1    1    2  502    0  0.20189630585E+02  0.10854099580E+02  0.24923344625E+03  0.30425604906E+03  0.17300000000E+03 0. -1.
       -6    1    1    2    0  504  0.11011716102E+02  0.37642669170E+02 -0.73432965842E+01  0.17754197374E+03  0.17300000000E+03 0.  1.
</event>
<event>
 6   0  0.4500850E-05  0.4940766E+03  0.7546771E-02  0.1030708E+00
       21   -1    0    0  502  503  0.00000000000E+00  0.00000000000E+00  0.92205194547E+03  0.92205194547E+03  0.00000000000E+00 0. -1.
       21   -1    0    0  501  504  0.00000000000E+00  0.00000000000E+00 -0.15463870187E+04  0.15463870187E+04  0.00000000000E+00 0. -1.
        6    1    1    2  501    0  0.25162650266E+03  0.59565053580E+02  0.75406654669E+02  0.32012350120E+03  0.17300000000E+03 0. -1.
       -6    1    1    2    0  504  0.36204897823E+03  0.20177646598E+03 -0.73316369024E+03  0.85979718629E+03  0.17300000000E+03 0. -1.
        6    1    1    2  502    0 -0.70732021629E+03  0.71158240148E+01 -0.32672082533E+03  0.79814035171E+03  0.17300000000E+03 0. -1.
       -6    1    1    2    0  503  0.93644735395E+02 -0.26845734357E+03  0.36014278768E+03  0.49037792497E+03  0.17300000000E+03 0. -1.
</event>
<event>
 6   0  0.4500850E-05  0.3817955E+03  0.7546771E-02  0.1062003E+00
       21   -1    0    0  501  503  0.00000000000E+00  0.00000000000E+00  0.11435251200E+04  0.11435251200E+04  0.00000000000E+00 0. -1.
       21   -1    0    0  503  504  0.00000000000E+00  0.00000000000E+00 -0.14536492339E+04  0.14536492339E+04  0.00000000000E+00 0. -1.
        6    1    1    2  501    0  0.49765424043E+02  0.13575169346E+03  0.68099674708E+03  0.71734976771E+03  0.17300000000E+03 0. -1.
       -6    1    1    2    0  502 -0.85616612628E+02 -0.14716425960E+03  0.15086147574E+03  0.28578962284E+03  0.17300000000E+03 0. -1.
        6    1    1    2  502    0  0.40828019828E+02 -0.24463396786E+03  0.96622844979E+02  0.31745500406E+03  0.17300000000E+03 0. -1.
       -6    1    1    2    0  504 -0.49768312428E+01  0.25604653400E+03 -0.12386051817E+04  0.12765799593E+04  0.17300000000E+03 0. -1.
</event>
<event>
 6   0  0.4500850E-05  0.3502197E+03  0.7546771E-02  0.1083199E+00
       21   -1    0    0  502  503  0.00000000000E+00  0.00000000000E+00  0.55137807477E+03  0.55137807477E+03  0.00000000000E+00 0.  1.
       21   -1    0    0  503  504  0.00000000000E+00  0.00000000000E+00 -0.12673237076E+04  0.12673237076E+04  0.00000000000E+00 0. -1.
        6    1    1    2  501    0  0.34176268629E+03 -0.52468272271E+02 -0.62528664695E+03  0.73516463748E+03  0.17300000000E+03 0. -1.
       -6    1    1    2    0  501  0.11243409750E+02  0.97139003712E+01 -0.13955325866E+03  0.22276643851E+03  0.17300000000E+03 0. -1.
        6    1    1    2  502    0 -0.28524725358E+02 -0.25084536755E+03  0.20111075084E+03  0.36621249635E+03  0.17300000000E+03 0. -1.
       -6    1    1    2    0  504 -0.32448137069E+03  0.29359973945E+03 -0.15221647805E+03  0.49455821004E+03  0.17300000000E+03 0.  1.
</event>
<event>
 6   0  0.4500850E-05  0.2100285E+03  0.7546771E-02  0.1142867E+00
       21   -1    0    0  502  503  0.00000000000E+00  0.00000000000E+00  0.31122270521E+03  0.31122270521E+03  0.00000000000E+00 0.  1.
       21   -1    0    0  503  504  0.00000000000E+00  0.00000000000E+00 -0.11348011699E+04  0.11348011699E+04  0.00000000000E+00 0. -1.
        6    1    1    2  501    0  0.36592817272E+01 -0.20987586072E+03 -0.12159713688E+03  0.29795323619E+03  0.17300000000E+03 0.  1.
       -6    1    1    2    0  504 -0.72931358843E+01  0.67100203202E+02 -0.72606803252E+03  0.74943940045E+03  0.17300000000E+03 0. -1.
        6    1    1    2  502    0  0.49944013365E+02  0.12105529429E+03  0.23343310046E+02  0.21822625614E+03  0.17300000000E+03 0.  1.
       -6    1    1    2    0  501 -0.46310159207E+02  0.21720363231E+02  0.74339463032E+00  0.18040498236E+03  0.17300000000E+03 0.  1.
</event>
<event>
 6   0  0.4500850E-05  0.6393341E+03  0.7546771E-02  0.1020409E+00
       21   -1    0    0  502  503  0.00000000000E+00  0.00000000000E+00  0.68326092495E+03  0.68326092495E+03  0.00000000000E+00 0. -1.
       21   -1    0    0  501  504  0.00000000000E+00  0.00000000000E+00 -0.13757356459E+04  0.13757356459E+04  0.00000000000E+00 0.  1.
        6    1    1    2  501    0 -0.33751885547E+03  0.15409649780E+03 -0.42141972711E+03  0.58752727156E+03  0.17300000000E+03 0.  1.
       -6    1    1    2    0  504  0.51955216624E+03 -0.86102786739E+02 -0.51372419600E+03  0.75577092620E+03  0.17300000000E+03 0.  1.
        6    1    1    2  502    0 -0.63488283092E+02 -0.65112628616E+02  0.40551866072E+03  0.45016086090E+03  0.17300000000E+03 0. -1.
       -6    1    1    2    0  503 -0.11854502767E+03 -0.28810824411E+01 -0.16284945853E+03  0.26553751217E+03  0.17300000000E+03 0.  1.
</event>
<event>
 6   0  0.4500850E-05  0.7331204E+03  0.7546771E-02  0.9841466E-01
       21   -1    0    0  504  503  0.00000000000E+00  0.00000000000E+00  0.87858420960E+03  0.87858420960E+03  0.00000000000E+00 0.  1.
       21   -1    0    0  502  504  0.00000000000E+00  0.00000000000E+00 -0.15370162344E+04  0.15370162344E+04  0.00000000000E+00 0. -1.
        6    1    1    2  501    0 -0.29889147918E+03  0.34940032647E+03 -0.14896725191E+03  0.51335849716E+03  0.17300000000E+03 0. -1.
       -6    1    1    2    0  501  0.10897986339E+03 -0.18743186285E+02 -0.11577716167E+03  0.23571437975E+03  0.17300000000E+03 0.  1.
        6    1    1    2  502    0  0.52633506885E+03 -0.18748881014E+03 -0.86579055587E+03  0.10448458955E+04  0.17300000000E+03 0. -1.
       -6    1    1    2    0  503 -0.33642345306E+03 -0.14316833004E+03  0.47210294465E+03  0.62168167163E+03  0.17300000000E+03 0.  1.
</event>
<event>
 6   0  0.4500850E-05  0.3160931E+03  0.7546771E-02  0.1077767E+00
       21   -1    0    0  502  503  0.00000000000E+00  0.00000000000E+00  0.99802739962E+03  0.99802739962E+03  0.00000000000E+00 0. -1.
       21   -1    0    0  501  504  0.00000000000E+00  0.00000000000E+00 -0.82300420421E+03  0.82300420421E+03  0.00000000000E+00 0. -1.
        6    1    1    2  501    0 -0.11265934181E+03 -0.25498487265E+03  0.51301054338E+03  0.60894846267E+03  0.17300000000E+03 0.  1.
       -6    1    1    2    0  504  0.18117025707E+03  0.13783649261E+03 -0.46629549170E+03  0.54697536171E+03  0.17300000000E+03 0. -1.
        6    1    1    2  502    0  0.20306609601E+03  0.10496916801E+03 -0.58586078295E+02  0.29260159629E+03  0.17300000000E+03 0. -1.
       -6    1    1    2    0  503 -0.27157701128E+03  0.12179212031E+02  0.18689422203E+03  0.37250618315E+03  0.17300000000E+03 0. -1.
</event>
<event>
 6   0  0.4500850E-05  0.8463899E+03  0.7546771E-02  0.9556652E-01
       -1   -1    0    0    0  501  0.00000000000E+00  0.00000000000E+00  0.49562538295E+03  0.49562538295E+03  0.00000000000E+00 0.  1.
        1   -1    0    0  503    0  0.00000000000E+00  0.00000000000E+00 -0.12057058700E+04  0.12057058700E+04  0.00000000000E+00 0. -1.
        6    1    1    2  502    0  0.11797316726E+03  0.34464873373E+02 -0.66382338236E+02  0.22235357096E+03  0.17300000000E+03 0. -1.
       -6    1    1    2    0  502 -0.17177834619E+03  0.30741388059E+02 -0.44589656371E+03  0.50912236121E+03  0.17300000000E+03 0. -1.
        6    1    1    2  503    0 -0.29213439735E+03 -0.33419711063E+03 -0.68447071634E+02  0.48129431379E+03  0.17300000000E+03 0.  1.
       -6    1    1    2    0  501  0.34593957628E+03  0.26899084919E+03 -0.12935451345E+03  0.48856100698E+03  0.17300000000E+03 0. -1.
</event>
<event>
 6   0  0.4500850E-05  0.4863633E+03  0.7546771E-02  0.1051527E+00
       21   -1    0    0  504  503  0.00000000000E+00  0.00000000000E+00  0.60422067910E+03  0.60422067910E+03  0.00000000000E+00 0.  1.
       21   -1    0    0  502  504  0.00000000000E+00  0.00000000000E+00 -0.15726557690E+04  0.15726557690E+04  0.00000000000E+00 0.  1.
        6    1    1    2  501    0 -0.13629864374E+03 -0.10085825222E+03  0.13997028026E+02  0.24264093661E+03  0.17300000000E+03 0.  1.
       -6    1    1    2    0  501  0.37481579143E+03  0.40186512345E+03 -0.59783912071E+03  0.83025482185E+03  0.17300000000E+03 0.  1.
        6    1    1    2  502    0 -0.27898424720E+03 -0.28720028942E+03 -0.65091252517E+03  0.78353834102E+03  0.17300000000E+03 0.  1.
       -6    1    1    2    0  503  0.40467099513E+02 -0.13806581820E+02  0.26631952793E+03  0.32044234864E+03  0.17300000000E+03 0.  1.
</event>
<event>
 6   0  0.4500850E-05  0.7150999E+03  0.7546771E-02  0.9719700E-01
        1   -1    0    0  502    0  0.00000000000E+00  0.00000000000E+00  0.39622066149E+03  0.39622066149E+03  0.00000000000E+00 0.  1.
       -1   -1    0    0    0  501  0.00000000000E+00  0.00000000000E+00 -0.12272389283E+04  0.12272389283E+04  0.00000000000E+00 0. -1.
        6    1    1    2  502    0  0.22449366606E+03  0.23585083700E+02 -0.25539705945E+03  0.38224379688E+03  0.17300000000E+03 0. -1.
       -6    1    1    2    0  503  0.14083177373E+03 -0.31049727731E+03 -0.16105705060E+02  0.38266243798E+03  0.17300000000E+03 0.  1.
        6    1    1    2  503    0 -0.20186625093E+03  0.10026419079E+03 -0.86333059024E+02  0.29696007863E+03  0.17300000000E+03 0.  1.
       -6    1    1    2    0  501 -0.16345918886E+03  0.18664800282E+03 -0.47318244330E+03  0.56159327634E+03  0.17300000000E+03 0. -1.
</event>
<event>
 6   0  0.4500850E-05  0.2415904E+03  0.7546771E-02  0.1131502E+00
       21   -1    0    0  501  503  0.00000000000E+00  0.00000000000E+00  0.16987884601E+04  0.16987884601E+04  0.00000000000E+00 0. -1.
       21   -1    0    0  503  504  0.00000000000E+00  0.00000000000E+00 -0.21817277105E+03  0.21817277105E+03  0.00000000000E+00 0. -1.
        6    1    1    2  501    0 -0.10111529206E+02  0.67806271023E+02  0.36568709127E+03  0.41031205458E+03  0.17300000000E+03 0.  1.
       -6    1    1    2    0  504 -0.95545473127E+02  0.13007713299E+03 -0.56491500442E+02  0.24324737940E+03  0.17300000000E+03 0. -1.
        6    1    1    2  502    0  0.74684209555E+02 -0.20874702893E+03  0.55292432021E+03  0.62032842683E+03  0.17300000000E+03 0. -1.
       -6    1    1    2    0  502  0.30972792778E+02  0.10863624916E+02  0.61849577796E+03  0.64307337030E+03  0.17300000000E+03 0.  1.
</event>
<event>
 6   0  0.4500850E-05  0.2408131E+03  0.7546771E-02  0.1130595E+00
       21   -1    0    0  502  503  0.00000000000E+00  0.00000000000E+00  0.11727209796E+04  0.11727209796E+04  0.00000000000E+00 0.  1.
       21   -1    0    0  503  504  0.00000000000E+00  0.00000000000E+00 -0.34170140187E+03  0.34170140187E+03  0.00000000000E+00 0.  1.
        6    1    1    2  501    0 -0.13147859701E+01 -0.65983214743E+02  0.43603163710E+02  0.19022552188E+03  0.17300000000E+03 0. -1.
       -6    1    1    2    0  504  0.42281570206E+02 -0.36490525433E+02 -0.64117032768E+02  0.19276743375E+03  0.17300000000E+03 0.  1.
        6    1    1    2  502    0 -0.15387846821E+03  0.89221304336E+02  0.88730883608E+03  0.92134955077E+03  0.17300000000E+03 0.  1.
       -6    1    1    2    0  501  0.11291168398E+03  0.13252435839E+02 -0.35775389275E+02  0.21007987508E+03  0.17300000000E+03 0.  1.
</event>
<event>
 6   0  0.4500850E-05  0.3630292E+03  0.7546771E-02  0.1058709E+00
       21   -1    0    0  501  503  0.00000000000E+00  0.00000000000E+00  0.21139564102E+04  0.21139564102E+04  0.00000000000E+00 0. -1.
       21   -1    0    0  503  504  0.00000000000E+00  0.00000000000E+00 -0.16922961846E+04  0.16922961846E+04  0.00000000000E+00 0.  1.
        6    1    1    2  501    0  0.16632553261E+03 -0.56566852478E+03  0.50101985001E+03  0.79283980275E+03  0.17300000000E+03 0. -1.
       -6    1    1    2    0  504  0.10181018116E+03  0.10002564427E+03 -0.64606972966E+03  0.68389000438E+03  0.17300000000E+03 0.  1.
        6    1    1    2  502    0 -0.38175377644E+03  0.36122262358E+03 -0.78371071581E+03  0.95934832865E+03  0.17300000000E+03 0.  1.
       -6    1    1    2    0  502  0.11361806267E+03  0.10442025692E+03  0.13504208210E+04  0.13701744590E+04  0.17300000000E+03 0. -1.
</event>
<event>
 6   0  0.4500850E-05  0.2423437E+03  0.7546771E-02  0.1121817E+00
       21   -1    0    0  502  503  0.00000000000E+00  0.00000000000E+00  0.84491968657E+03  0.84491968657E+03  0.00000000000E+00 0.  1.
       21   -1    0    0  501  504  0.00000000000E+00  0.00000000000E+00 -0.81224032979E+03  0.81224032979E+03  0.00000000000E+00 0.  1.
        6    1    1    2  501    0 -0.75339539255E+01  0.25608784088E+02 -0.51551182608E+03  0.54442080518E+03  0.17300000000E+03 0.  1.
       -6    1    1    2    0  504  0.93991325020E+02  0.19526376008E+03  0.16706070733E+03  0.32372918483E+03  0.17300000000E+03 0.  1.
        6    1    1    2  502    0 -0.41861106396E+02 -0.28731016803E+03 -0.26501933483E+02  0.33901450907E+03  0.17300000000E+03 0.  1.
       -6    1    1    2    0  503 -0.44596264698E+02  0.66437623858E+02  0.40763240901E+03  0.44999551727E+03  0.17300000000E+03 0.  1.
</event>
<event>
 6   0  0.4500850E-05  0.1000219E+04  0.7546771E-02  0.9320526E-01
       -2   -1    0    0    0  501  0.00000000000E+00  0.00000000000E+00  0.62799239790E+03  0.62799239790E+03  0.00000000000E+00 0.  1.
        2   -1    0    0  503    0  0.00000000000E+00  0.00000000000E+00 -0.15676424901E+04  0.15676424901E+04  0.00000000000E+00 0. -1.
        6    1    1    2  502    0  0.27753372894E+03  0.39471632730E+03  0.13845494024E+03  0.53096583715E+03  0.17300000000E+03 0.  1.
       -6    1    1    2    0  502 -0.34171833524E+03 -0.61512228552E+03 -0.64441551228E+03  0.96971500929E+03  0.17300000000E+03 0. -1.
        6    1    1    2  503    0 -0.39181115620E+02  0.41957694712E+02  0.26155206115E+01  0.18229495033E+03  0.17300000000E+03 0.  1.
       -6    1    1    2    0  501  0.10336572192E+03  0.17844826350E+03 -0.43630504072E+03  0.51265909119E+03  0.17300000000E+03 0.  1.
</event>
<event>
 6   0  0.4500850E-05  0.2047215E+03  0.7546771E-02  0.1147071E+00
       21   -1    0    0  502  503  0.00000000000E+00  0.00000000000E+00  0.68055058030E+03  0.68055058030E+03  0.00000000000E+00 0.  1.
       21   -1    0    0  503  504  0.00000000000E+00  0.00000000000E+00 -0.82293100828E+03  0.82293100828E+03  0.00000000000E+00 0.  1.
        6    1    1    2  501    0  0.63049817065E+02  0.34229738424E+02 -0.36988003374E+03  0.41459280479E+03  0.17300000000E+03 0. -1.
       -6    1    1    2    0  501  0.62095942640E+01 -0.54471385091E+02  0.20922437470E+02  0.18268125039E+03  0.17300000000E+03 0. -1.
        6    1    1    2  502    0  0.13848375318E+02 -0.96988303498E+02  0.49909027017E+03  0.53723235782E+03  0.17300000000E+03 0.  1.
       -6    1    1    2    0  504 -0.83107786647E+02  0.11722995016E+03 -0.29251310188E+03  0.36897517558E+03  0.17300000000E+03 0.  1.
</event>
<event>
 6   0  0.4500850E-05  0.2770572E+03  0.7546771E-02  0.1114605E+00
       21   -1    0    0  502  503  0.00000000000E+00  0.00000000000E+00  0.84044159517E+03  0.84044159517E+03  0.00000000000E+00 0.  1.
       21   -1    0    0  503  504  0.00000000000E+00  0.00000000000E+00 -0.78385421753E+03  0.78385421753E+03  0.00000000000E+00 0.  1.
        6    1    1    2  501    0 -0.22220478242E+02  0.34153938912E+02 -0.80653736476E+01  0.17791652944E+03  0.17300000000E+03 0.  1.
       -6    1    1    2    0  504 -0.50935572090E+01 -0.20875130803E+03 -0.51648998210E+03  0.58334719896E+03  0.17300000000E+03 0.  1.
        6    1    1    2  502    0 -0.18261354395E+03  0.47315284432E+02  0.62137729576E+02  0.26339426723E+03  0.17300000000E+03 0. -1.
       -6    1    1    2    0  501  0.20992757940E+03  0.12728208468E+03  0.51900500381E+03  0.59963781707E+03  0.17300000000E+03 0.  1.
</event>
<event>
 6   0  0.4500850E-05  0.1990780E+03  0.7546771E-02  0.1156386E+00
       21   -1    0    0  502  503  0.00000000000E+00  0.00000000000E+00  0.93549432088E+03  0.93549432088E+03  0.00000000000E+00 0. -1.
       21   -1    0    0  501  504  0.00000000000E+00  0.00000000000E+00 -0.54371378706E+03  0.54371378706E+03  0.00000000000E+00 0. -1.
        6    1    1    2  501    0  0.42361581186E+02 -0.78319207002E+02 -0.32790706704E+03  0.38128787859E+03  0.17300000000E+03 0.  1.
       -6    1    1    2    0  504 -0.43935902059E+02 -0.74157827557E+02  0.20111470270E+03  0.27893703683E+03  0.17300000000E+03 0.  1.
        6    1    1    2  502    0 -0.10932870081E+02  0.38945254533E+01  0.56056180934E+03  0.58676506122E+03  0.17300000000E+03 0. -1.
       -6    1    1    2    0  503  0.12507190954E+02  0.14858250911E+03 -0.41988911180E+02  0.23221813129E+03  0.17300000000E+03 0. -1.
</event>
<event>
 6   0  0.4500850E-05  0.6020747E+03  0.7546771E-02  0.9901111E-01
        2   -1    0    0  503    0  0.00000000000E+00  0.00000000000E+00  0.15539773683E+04  0.15539773683E+04  0.00000000000E+00 0. -1.
       -2   -1    0    0    0  501  0.00000000000E+00  0.00000000000E+00 -0.24626274840E+03  0.24626274840E+03  0.00000000000E+00 0.  1.
        6    1    1    2  502    0  0.22907930140E+03  0.70721265027E+02  0.20320011926E+03  0.35874519108E+03  0.17300000000E+03 0.  1.
       -6    1    1    2    0  502 -0.41130625514E+03 -0.19945027379E+03  0.61326082733E+03  0.78420092423E+03  0.17300000000E+03 0.  1.
        6    1    1    2  503    0  0.46126661521E+02  0.41595239104E+02  0.30485281947E+03  0.35598044098E+03  0.17300000000E+03 0. -1.
       -6    1    1    2    0  501  0.13610029221E+03  0.87133769661E+02  0.18640085381E+03  0.30131356036E+03  0.17300000000E+03 0. -1.
</event>
<event>
 6   0  0.4500850E-05  0.4755778E+03  0.7546771E-02  0.1048658E+00
       21   -1    0    0  501  503  0.00000000000E+00  0.00000000000E+00  0.61601927746E+03  0.61601927746E+03  0.00000000000E+00 0.  1.
       21   -1    0    0  503  504  0.00000000000E+00  0.00000000000E+00 -0.11480394945E+04  0.11480394945E+04  0.00000000000E+00 0.  1.
        6    1    1    2  501    0 -0.26583344925E+03 -0.16842806556E+03  0.63511224445E+02  0.36468906158E+03  0.17300000000E+03 0. -1.
       -6    1    1    2    0  504  0.34564351244E+03  0.35698544341E+03 -0.72626793611E+03  0.89682894663E+03  0.17300000000E+03 0.  1.
        6    1    1    2  502    0  0.20432976300E+02 -0.13550281272E+03 -0.51756611670E+02  0.22668538909E+03  0.17300000000E+03 0. -1.
       -6    1    1    2    0  502 -0.10024303949E+03 -0.53054565131E+02  0.18249310633E+03  0.27585537462E+03  0.17300000000E+03 0.  1.
</event>
<event>
 6   0  0.4500850E-05  0.2329791E+03  0.7546771E-02  0.1132306E+00
       21   -1    0    0  501  503  0.00000000000E+00  0.00000000000E+00  0.56994036240E+03  0.56994036240E+03  0.00000000000E+00 0. -1.
       21   -1    0    0  502  504  0.00000000000E+00  0.00000000000E+00 -0.85947063368E+03  0.85947063368E+03  0.00000000000E+00 0.  1.
        6    1    1    2  501    0 -0.20927232476E+02 -0.52256438170E+02 -0.14568216314E+03  0.23306861017E+03  0.17300000000E+03 0.  1.
       -6    1    1    2    0  504  0.63837898675E+02  0.24053601249E+03 -0.46378786396E+03  0.55404064234E+03  0.17300000000E+03 0. -1.
        6    1    1    2  502    0  0.74486723367E+02 -0.12339508409E+03 -0.32401548410E+02  0.22749390997E+03  0.17300000000E+03 0. -1.
       -6    1    1    2    0  503 -0.11739738957E+03 -0.64884490235E+02  0.35234130423E+03  0.41480783360E+03  0.17300000000E+03 0. -1.
</event>
<event>
 6   0  0.4500850E-05  0.2064748E+03  0.7546771E-02  0.1145568E+00
       21   -1    0    0  501  503  0.00000000000E+00  0.00000000000E+00  0.21032107104E+03  0.21032107104E+03  0.00000000000E+00 0.  1.
       21   -1    0    0  502  504  0.00000000000E+00  0.00000000000E+00 -0.10419926068E+04  0.10419926068E+04  0.00000000000E+00 0. -1.
        6    1    1    2  501    0 -0.66436194208E+02 -0.37021323670E+02 -0.24470307229E+03  0.30918107946E+03  0.17300000000E+03 0.  1.
       -6    1    1    2    0  504  0.18933208633E+02 -0.10468005667E+03 -0.21524841610E+03  0.29593455575E+03  0.17300000000E+03 0. -1.
        6    1    1    2  502    0  0.10540915250E+03 -0.31491784134E+02 -0.33531791271E+03  0.39302662058E+03  0.17300000000E+03 0. -1.
       -6    1    1    2    0  503 -0.57906166929E+02  0.17319316447E+03 -0.36402134676E+02  0.25417142207E+03  0.17300000000E+03 0.  1.
</event>
<event>
 6   0  0.4500850E-05  0.2686559E+03  0.7546771E-02  0.1113259E+00
       21   -1    0    0  502  503  0.00000000000E+00  0.00000000000E+00  0.39388331492E+03  0.39388331492E+03  0.00000000000E+00 0.  1.
       21   -1    0    0  501  504  0.00000000000E+00  0.00000000000E+00 -0.10097583689E+04  0.10097583689E+04  0.00000000000E+00 0.  1.
        6    1    1    2  501    0 -0.15465167277E+03  0.54683242334E+02 -0.40577781104E+03  0.47062939646E+03  0.17300000000E+03 0.  1.
       -6    1    1    2    0  504 -0.12743118565E+03 -0.20910757270E+03  0.95493350221E+02  0.31466277818E+03  0.17300000000E+03 0. -1.
        6    1    1    2  502    0 -0.10690738818E+02  0.49791133891E+02 -0.81825656069E+02  0.19803506483E+03  0.17300000000E+03 0.  1.
       -6    1    1    2    0  503  0.29277359723E+03  0.10463319647E+03 -0.22376493705E+03  0.42031444431E+03  0.17300000000E+03 0.  1.
</event>
<event>
 6   0  0.4500850E-05  0.4975491E+03  0.7546771E-02  0.1029498E+00
       21   -1    0    0  504  503  0.00000000000E+00  0.00000000000E+00  0.19400133945E+04  0.19400133945E+04  0.00000000000E+00 0. -1.
       21   -1    0    0  502  504  0.00000000000E+00  0.00000000000E+00 -0.19861521186E+03  0.19861521186E+03  0.00000000000E+00 0.  1.
        6    1    1    2  501    0 -0.39566604126E+03  0.88739523341E+02  0.67529716733E+03  0.80646238809E+03  0.17300000000E+03 0. -1.
       -6    1    1    2    0  503  0.58755034559E+02 -0.13335564041E+03  0.37932836191E+03  0.44165018630E+03  0.17300000000E+03 0.  1.
        6    1    1    2  502    0  0.12857763059E+03 -0.11783723572E+03  0.24023168138E+03  0.34359581189E+03  0.17300000000E+03 0.  1.
       -6    1    1    2    0  501  0.20833337611E+03  0.16245335279E+03  0.44654097205E+03  0.54692022010E+03  0.17300000000E+03 0.  1.
</event>
<event>
 6   0  0.4500850E-05  0.2952994E+03  0.7546771E-02  0.1095813E+00
       21   -1    0    0  502  503  0.00000000000E+00  0.00000000000E+00  0.67265323752E+03  0.67265323752E+03  0.00000000000E+00 0. -1.
       21   -1    0    0  501  504  0.00000000000E+00  0.00000000000E+00 -0.86415539853E+03  0.86415539853E+03  0.00000000000E+00 0. -1.
        6    1    1    2  501    0 -0.38755021015E+03 -0.94370945790E+02 -0.24331985280E+03  0.49823146384E+03  0.17300000000E+03 0. -1.
       -6    1    1    2    0  503  0.28652297998E+02  0.12591538969E+03 -0.20968117371E+03  0.30094988644E+03  0.17300000000E+03 0. -1.
        6    1    1    2  502    0  0.18626674400E+03 -0.88999438694E+02  0.37532541666E+03  0.46196793005E+03  0.17300000000E+03 0. -1.
       -6    1    1    2    0  504  0.17263116816E+03  0.57454994796E+02 -0.11382655116E+03  0.27565935572E+03  0.17300000000E+03 0. -1.
</event>
<event>
 6   0  0.4500850E-05  0.3922471E+03  0.7546771E-02  0.1060822E+00
       21   -1    0    0  502  503  0.00000000000E+00  0.00000000000E+00  0.99366658762E+03  0.99366658762E+03  0.00000000000E+00 0. -1.
       21   -1    0    0  501  504  0.00000000000E+00  0.00000000000E+00 -0.10298159963E+04  0.10298159963E+04  0.00000000000E+00 0. -1.
        6    1    1    2  501    0  0.19555816208E+03  0.12621989880E+02 -0.49187035140E+03  0.55701683276E+03  0.17300000000E+03 0. -1.
       -6    1    1    2    0  504 -0.20338590519E+03 -0.28673463864E+03 -0.85747314713E+02  0.40107877207E+03  0.17300000000E+03 0. -1.
        6    1    1    2  502    0 -0.33687679266E+03 -0.18537754473E+02  0.42082610634E+03  0.56643908194E+03  0.17300000000E+03 0.  1.
       -6    1    1    2    0  503  0.34470453577E+03  0.29265040323E+03  0.12064215106E+03  0.49894789718E+03  0.17300000000E+03 0. -1.
</event>
<event>
 6   0  0.4500850E-05  0.2961819E+03  0.7546771E-02  0.1087622E+00
       21   -1    0    0  504  503  0.00000000000E+00  0.00000000000E+00  0.59027986048E+03  0.59027986048E+03  0.00000000000E+00 0. -1.
       21   -1    0    0  501  504  0.00000000000E+00  0.00000000000E+00 -0.83356723212E+03  0.83356723212E+03  0.00000000000E+00 0. -1.
        6    1    1    2  501    0  0.77073438683E+02  0.51217214939E+01  0.15416863195E+03  0.24426115954E+03  0.17300000000E+03 0.  1.
       -6    1    1    2    0  503  0.86097227724E+02  0.18766657020E+02  0.42856804746E+02  0.19882310165E+03  0.17300000000E+03 0. -1.
        6    1    1    2  502    0 -0.10586120618E+03  0.11017886335E+03  0.19764634321E+03  0.30387341754E+03  0.17300000000E+03 0.  1.
       -6    1    1    2    0  502 -0.57309460232E+02 -0.13406724186E+03 -0.63795915155E+03  0.67688941388E+03  0.17300000000E+03 0. -1.
</event>
<event>
 6   0  0.4500850E-05  0.3083923E+03  0.7546771E-02  0.1085417E+00
       21   -1    0    0  501  503  0.00000000000E+00  0.00000000000E+00  0.10722624972E+04  0.10722624972E+04  0.00000000000E+00 0. -1.
       21   -1    0    0  502  504  0.00000000000E+00  0.00000000000E+00 -0.45832474435E+03  0.45832474435E+03  0.00000000000E+00 0. -1.
        6    1    1    2  501    0  0.52995109232E+02  0.18041096587E+03  0.14565121682E+03  0.29410861118E+03  0.17300000000E+03 0. -1.
       -6    1    1    2    0  504 -0.13765709244E+03  0.16621435048E+03 -0.97633121391E+02  0.29332219793E+03  0.17300000000E+03 0.  1.
        6    1    1    2  502    0  0.25764735567E+03  0.20625647372E+02  0.26972244200E+03  0.41168771288E+03  0.17300000000E+03 0.  1.
       -6    1    1    2    0  503 -0.17298537246E+03 -0.36725096372E+03  0.29619721538E+03  0.53146871953E+03  0.17300000000E+03 0. -1.
</event>
<event>
 6   0  0.4500850E-05  0.4444358E+03  0.7546771E-02  0.1044741E+00
       21   -1    0    0  502  503  0.00000000000E+00  0.00000000000E+00  0.76320371752E+03  0.76320371752E+03  0.00000000000E+00 0. -1.
       21   -1    0    0  501  504  0.00000000000E+00  0.00000000000E+00 -0.59489354598E+03  0.59489354598E+03  0.00000000000E+00 0. -1.
        6    1    1    2  501    0 -0.18637616077E+03 -0.80664301251E+02  0.11865488662E+03  0.29197737056E+03  0.17300000000E+03 0. -1.
       -6    1    1    2    0  504 -0.14379687672E+03 -0.24558325177E+03  0.24651621223E+02  0.33395415514E+03  0.17300000000E+03 0. -1.
        6    1    1    2  502    0  0.24971046433E+03  0.17658029855E+03 -0.19748426368E+03  0.40306941366E+03  0.17300000000E+03 0. -1.
       -6    1    1    2    0  503  0.80462573164E+02  0.14966725447E+03  0.22248792737E+03  0.32909632415E+03  0.17300000000E+03 0.  1.
</event>
<event>
 6   0  0.4500850E-05  0.2170471E+03  0.7546771E-02  0.1138090E+00
       21   -1    0    0  504  503  0.00000000000E+00  0.00000000000E+00  0.23868503949E+03  0.23868503949E+03  0.00000000000E+00 0.  1.
       21   -1    0    0  501  504  0.00000000000E+00  0.00000000000E+00 -0.18825060606E+04  0.18825060606E+04  0.00000000000E+00 0.  1.
        6    1    1    2  501    0 -0.96209914140E+02  0.33626600375E+02 -0.87071538070E+03  0.89356665673E+03  0.17300000000E+03 0.  1.
       -6    1    1    2    0  502  0.21102139560E+03 -0.11450823717E+03 -0.74084479203E+03  0.79776072331E+03  0.17300000000E+03 0.  1.
        6    1    1    2  502    0 -0.42485281500E+02  0.12707343146E+03  0.42271021239E+02  0.22286429809E+03  0.17300000000E+03 0.  1.
       -6    1    1    2    0  503 -0.72326199956E+02 -0.46191794671E+02 -0.74531869586E+02  0.20699942193E+03  0.17300000000E+03 0.  1.
</event>
<event>
 6   0  0.4500850E-05  0.3079933E+03  0.7546771E-02  0.1092527E+00
       21   -1    0    0  504  503  0.00000000000E+00  0.00000000000E+00  0.18458718659E+04  0.18458718659E+04  0.00000000000E+00 0.  1.
       21   -1    0    0  502  504  0.00000000000E+00  0.00000000000E+00 -0.14749570341E+04  0.14749570341E+04  0.00000000000E+00 0.  1.
        6    1    1    2  501    0 -0.29711923240E+03 -0.81787424769E+02  0.74800317771E+02  0.36123829898E+03  0.17300000000E+03 0.  1.
       -6    1    1    2    0  501  0.11729869125E+03  0.34920133724E+03 -0.72131734274E+03  0.82820786391E+03  0.17300000000E+03 0.  1.
        6    1    1    2  502    0  0.49131631744E+02 -0.98221015682E+02 -0.52554850551E+03  0.56408467166E+03  0.17300000000E+03 0.  1.
       -6    1    1    2    0  503  0.13068890941E+03 -0.16919289679E+03  0.15429803623E+04  0.15672980654E+04  0.17300000000E+03 0. -1.
</event>
<event>
 6   0  0.4500850E-05  0.3261956E+03  0.7546771E-02  0.1089391E+00
       21   -1    0    0  502  503  0.00000000000E+00  0.00000000000E+00  0.18298695601E+04  0.18298695601E+04  0.00000000000E+00 0.  1.
       21   -1    0    0  503  504  0.00000000000E+00  0.00000000000E+00 -0.27259405000E+03  0.27259405000E+03  0.00000000000E+00 0.  1.
        6    1    1    2  501    0  0.11253631747E+03  0.22187953029E+03  0.34949927441E+03  0.46257290401E+03  0.17300000000E+03 0.  1.
       -6    1    1    2    0  504 -0.15491216984E+03  0.15395749547E+03  0.32572957884E+03  0.42863673350E+03  0.17300000000E+03 0. -1.
        6    1    1    2  502    0  0.83658162155E+02 -0.82189026681E+02 -0.52624011785E+02  0.21552728555E+03  0.17300000000E+03 0.  1.
       -6    1    1    2    0  501 -0.41282309785E+02 -0.29364799907E+03  0.93467066863E+03  0.99572668703E+03  0.17300000000E+03 0.  1.
</event>
<event>
 6   0  0.4500850E-05  0.3917960E+03  0.7546771E-02  0.1068987E+00
       21   -1    0    0  501  503  0.00000000000E+00  0.00000000000E+00  0.11345741480E+04  0.11345741480E+04  0.00000000000E+00 0.  1.
       21   -1    0    0  503  504  0.00000000000E+00  0.00000000000E+00 -0.65844625491E+03  0.65844625491E+03  0.00000000000E+00 0. -1.
        6    1    1    2  501    0  0.11578139637E+03  0.10357421042E+03  0.43433452253E+02  0.23653417001E+03  0.17300000000E+03 0. -1.
       -6    1    1    2    0  502 -0.11757293516E+03 -0.10251672679E+01  0.68803187018E+03  0.71912537185E+03  0.17300000000E+03 0.  1.
        6    1    1    2  502    0 -0.13438342733E+02 -0.40944423396E+03 -0.13410808824E+03  0.46447728589E+03  0.17300000000E+03 0. -1.
       -6    1    1    2    0  504  0.15229881530E+02  0.30689519081E+03 -0.12122934115E+03  0.37288357511E+03  0.17300000000E+03 0. -1.
</event>
<event>
 6   0  0.4500850E-05  0.2310702E+03  0.7546771E-02  0.1128063E+00
       21   -1    0    0  501  503  0.00000000000E+00  0.00000000000E+00  0.80361933031E+03  0.80361933031E+03  0.00000000000E+00 0.  1.
       21   -1    0    0  503  504  0.00000000000E+00  0.00000000000E+00 -0.33079726771E+03  0.33079726771E+03  0.00000000000E+00 0.  1.
        6    1    1    2  501    0  0.12497301428E+03  0.14319405376E+03  0.37854451617E+03  0.45754534426E+03  0.17300000000E+03 0.  1.
       -6    1    1    2    0  502 -0.76467891020E+01  0.77301650319E+02  0.52594516635E+02  0.19679736204E+03  0.17300000000E+03 0. -1.
        6    1    1    2  502    0 -0.14678354155E+03 -0.19722805710E+03  0.37962762642E+02  0.30300905255E+03  0.17300000000E+03 0.  1.
       -6    1    1    2    0  504  0.29457316371E+02 -0.23267646975E+02  0.37202671447E+01  0.17706483917E+03  0.17300000000E+03 0.  1.
</event>
<event>
 6   0  0.4500850E-05  0.3744506E+03  0.7546771E-02  0.1056410E+00
       21   -1    0    0  501  503  0.00000000000E+00  0.00000000000E+00  0.33955910320E+03  0.33955910320E+03  0.00000000000E+00 0. -1.
       21   -1    0    0  503  504  0.00000000000E+00  0.00000000000E+00 -0.96024443303E+03  0.96024443303E+03  0.00000000000E+00 0.  1.
        6    1    1    2  501    0 -0.98239137917E+02  0.56209694610E+02 -0.14155863224E+03  0.25055599045E+03  0.17300000000E+03 0. -1.
       -6    1    1    2    0  504 -0.10576505742E+03  0.47307476164E+02 -0.10122771180E+03  0.23151737366E+03  0.17300000000E+03 0. -1.
        6    1    1    2  502    0  0.10840422407E+03  0.20572848613E+03  0.15310595988E+01  0.28983966248E+03  0.17300000000E+03 0. -1.
       -6    1    1    2    0  502  0.95599971271E+02 -0.30924565691E+03 -0.37943004539E+03  0.52789050964E+03  0.17300000000E+03 0.  1.
</event>
<event>
 6   0  0.4500850E-05  0.2780147E+03  0.7546771E-02  0.1097178E+00
       21   -1    0    0  501  503  0.00000000000E+00  0.00000000000E+00  0.13560870594E+04  0.13560870594E+04  0.00000000000E+00 0.  1.
       21   -1    0    0  502  504  0.00000000000E+00  0.00000000000E+00 -0.48171078782E+03  0.48171078782E+03  0.00000000000E+00 0. -1.
        6    1    1    2  501    0  0.29728760928E+02 -0.16128674508E+03  0.64332041185E+03  0.68606658982E+03  0.17300000000E+03 0. -1.
       -6    1    1    2    0  504 -0.11080252226E+03  0.11247444472E+03 -0.13058994695E+03  0.26816120879E+03  0.17300000000E+03 0.  1.
        6    1    1    2  502    0  0.27930013066E+03  0.16538101498E+03  0.45125880653E+03  0.58217089723E+03  0.17300000000E+03 0.  1.
       -6    1    1    2    0  503 -0.19822636934E+03 -0.11656871462E+03 -0.89612999826E+02  0.30139915140E+03  0.17300000000E+03 0. -1.
</event>
<event>
 6   0  0.4500850E-05  0.3185613E+03  0.7546771E-02  0.1087576E+00
       21   -1    0    0  502  503  0.00000000000E+00  0.00000000000E+00  0.21324110175E+04  0.21324110175E+04  0.00000000000E+00 0. -1.
       21   -1    0    0  501  504  0.00000000000E+00  0.00000000000E+00 -0.11821300265E+03  0.11821300265E+03  0.00000000000E+00 0. -1.
        6    1    1    2  501    0 -0.54929931380E+02 -0.53113791485E+02  0.89788763881E+03  0.91758900611E+03  0.17300000000E+03 0. -1.
       -6    1    1    2    0  504  0.19944625862E+03  0.13919727850E+02  0.17243782692E+03  0.31565229772E+03  0.17300000000E+03 0. -1.
        6    1    1    2  502    0 -0.57387670326E+02  0.62008285560E+01  0.48808532602E+03  0.52104518082E+03  0.17300000000E+03 0. -1.
       -6    1    1    2    0  503 -0.87128656915E+02  0.32993235079E+02  0.45578722314E+03  0.49633753555E+03  0.17300000000E+03 0. -1.
</event>
<event>
 6   0  0.4500850E-05  0.2303961E+03  0.7546771E-02  0.1127017E+00
       21   -1    0    0  502  503  0.00000000000E+00  0.00000000000E+00  0.44476979164E+03  0.44476979164E+03  0.00000000000E+00 0.  1.
       21   -1    0    0  501  504  0.00000000000E+00  0.00000000000E+00 -0.56869235098E+03  0.56869235098E+03  0.00000000000E+00 0. -1.
        6    1    1    2  501    0  0.23034354404E+02 -0.13343056073E+02 -0.55706573319E+02  0.18368680121E+03  0.17300000000E+03 0.  1.
       -6    1    1    2    0  503  0.18766306727E+03 -0.17028532659E+03 -0.18733638889E+02  0.30739952585E+03  0.17300000000E+03 0.  1.
        6    1    1    2  502    0 -0.43934635380E+02  0.77491380175E+01  0.82342891435E+02  0.19672227402E+03  0.17300000000E+03 0.  1.
       -6    1    1    2    0  504 -0.16676278629E+03  0.17587924465E+03 -0.13182523857E+03  0.32565354153E+03  0.17300000000E+03 0. -1.
</event>
<event>
 6   0  0.4500850E-05  0.2574509E+03  0.7546771E-02  0.1109009E+00
       21   -1    0    0  504  503  0.00000000000E+00  0.00000000000E+00  0.18837350225E+04  0.18837350225E+04  0.00000000000E+00 0.  1.
       21   -1    0    0  501  504  0.00000000000E+00  0.00000000000E+00 -0.46749677963E+03  0.46749677963E+03  0.00000000000E+00 0.  1.
        6    1    1    2  501    0  0.11066975660E+03 -0.23615400565E+03  0.19554432899E+03  0.36902993647E+03  0.17300000000E+03 0.  1.
       -6    1    1    2    0  503 -0.70953349501E+02  0.43665667393E+02 -0.32625080742E+01  0.19204351661E+03  0.17300000000E+03 0. -1.
        6    1    1    2  502    0  0.12601097757E+02 -0.86977304484E+02  0.14001827936E+04  0.14135645350E+04  0.17300000000E+03 0.  1.
       -6    1    1    2    0  502 -0.52317504853E+02  0.27946564274E+03 -0.17622637157E+03  0.37659381411E+03  0.17300000000E+03 0.  1.
</event>
<event>
 6   0  0.4500850E-05  0.2325749E+03  0.7546771E-02  0.1132457E+00
       21   -1    0    0  502  503  0.00000000000E+00  0.00000000000E+00  0.15076342380E+04  0.15076342380E+04  0.00000000000E+00 0.  1.
       21   -1    0    0  501  504  0.00000000000E+00  0.00000000000E+00 -0.25703453899E+03  0.25703453899E+03  0.00000000000E+00 0.  1.
        6    1    1    2  501    0  0.63276316357E+02 -0.30142341132E+02  0.19119390373E+03  0.26720135060E+03  0.17300000000E+03 0. -1.
       -6    1    1    2    0  503  0.13472268383E+02  0.14626699318E+03  0.78129884395E+02  0.24001836210E+03  0.17300000000E+03 0.  1.
        6    1    1    2  502    0 -0.17129163534E+03 -0.28752410465E+02 -0.76697436466E+01  0.24526587699E+03  0.17300000000E+03 0.  1.
       -6    1    1    2    0  504  0.94543050605E+02 -0.87372241586E+02  0.98894565453E+03  0.10121831873E+04  0.17300000000E+03 0.  1.
</event>
<event>
 6   0  0.4500850E-05  0.2280202E+03  0.7546771E-02  0.1130798E+00
       21   -1    0    0  504  503  0.00000000000E+00  0.00000000000E+00  0.49797431006E+03  0.49797431006E+03  0.00000000000E+00 0. -1.
       21   -1    0    0  501  504  0.00000000000E+00  0.00000000000E+00 -0.57871361916E+03  0.57871361916E+03  0.00000000000E+00 0. -1.
        6    1    1    2  501    0  0.27606578239E+02 -0.28563860991E+02 -0.10576934733E+03  0.20662568125E+03  0.17300000000E+03 0.  1.
       -6    1    1    2    0  502 -0.82537628823E+02 -0.22249081915E+03  0.14479797512E+02  0.29402940212E+03  0.17300000000E+03 0. -1.
        6    1    1    2  502    0  0.21654074714E+02  0.84686952288E+02 -0.18249704526E+03  0.26622349703E+03  0.17300000000E+03 0. -1.
       -6    1    1    2    0  503  0.33276975869E+02  0.16636772785E+03  0.19304728598E+03  0.30980934882E+03  0.17300000000E+03 0. -1.
</event>
<event>
 6   0  0.4500850E-05  0.5555208E+03  0.7546771E-02  0.1001386E+00
       -2   -1    0    0    0  501  0.00000000000E+00  0.00000000000E+00  0.23791048619E+04  0.23791048619E+04  0.00000000000E+00 0.  1.
        2   -1    0    0  502    0  0.00000000000E+00  0.00000000000E+00 -0.35341693257E+03  0.35341693257E+03  0.00000000000E+00 0. -1.
        6    1    1    2  502    0  0.23931079569E+03  0.81384310443E+02 -0.10122333066E+03  0.32259607188E+03  0.17300000000E+03 0. -1.
       -6    1    1    2    0  503  0.12144310531E+03  0.63099143896E+02  0.94328077565E+01  0.22078928337E+03  0.17300000000E+03 0. -1.
        6    1    1    2  503    0 -0.23690902441E+03 -0.16511532590E+03  0.14355647101E+04  0.14745046604E+04  0.17300000000E+03 0.  1.
       -6    1    1    2    0  501 -0.12384487659E+03  0.20631871564E+02  0.68191374215E+03  0.71463177883E+03  0.17300000000E+03 0.  1.
</event>
<event>
 6   0  0.4500850E-05  0.1910908E+03  0.7546771E-02  0.1158737E+00
       21   -1    0    0  502  503  0.00000000000E+00  0.00000000000E+00  0.26317901810E+03  0.26317901810E+03  0.00000000000E+00 0.  1.
       21   -1    0    0  503  504  0.00000000000E+00  0.00000000000E+00 -0.16716172557E+04  0.16716172557E+04  0.00000000000E+00 0.  1.
        6    1    1    2  501    0 -0.36483093315E+02 -0.11229183380E+03 -0.91464377428E+03  0.93831908532E+03  0.17300000000E+03 0. -1.
       -6    1    1    2    0  504  0.20057505436E+02 -0.14522114129E+01 -0.48669394125E+03  0.51691818007E+03  0.17300000000E+03 0.  1.
        6    1    1    2  502    0 -0.33637402106E+02  0.34021729035E+02  0.14497279384E+03  0.23072724985E+03  0.17300000000E+03 0.  1.
       -6    1    1    2    0  501  0.50062989985E+02  0.79722316175E+02 -0.15207331597E+03  0.24883175861E+03  0.17300000000E+03 0.  1.
</event>
<event>
 6   0  0.4500850E-05  0.3015207E+03  0.7546771E-02  0.1098401E+00
       21   -1    0    0  501  503  0.00000000000E+00  0.00000000000E+00  0.21867691614E+04  0.21867691614E+04  0.00000000000E+00 0. -1.
       21   -1    0    0  503  504  0.00000000000E+00  0.00000000000E+00 -0.37388621610E+03  0.37388621610E+03  0.00000000000E+00 0. -1.
        6    1    1    2  501    0 -0.59435081925E+02 -0.19011015652E+03  0.11037051695E+04  0.11347988816E+04  0.17300000000E+03 0. -1.
       -6    1    1    2    0  504  0.37127583346E+02  0.40103080116E+02  0.22428659894E+02  0.18280798468E+03  0.17300000000E+03 0. -1.
        6    1    1    2  502    0 -0.29379763923E+03 -0.11055406990E+03 -0.70114520508E+02  0.36521815559E+03  0.17300000000E+03 0. -1.
       -6    1    1    2    0  502  0.31610513780E+03  0.26056114630E+03  0.75686363647E+03  0.87783035566E+03  0.17300000000E+03 0. -1.
</event>
<event>
 6   0  0.4500850E-05  0.2295942E+03  0.7546771E-02  0.1133843E+00
       21   -1    0    0  501  503  0.00000000000E+00  0.00000000000E+00  0.67080788230E+03  0.67080788230E+03  0.00000000000E+00 0. -1.
       21   -1    0    0  503  504  0.00000000000E+00  0.00000000000E+00 -0.76268497588E+03  0.76268497588E+03  0.00000000000E+00 0. -1.
        6    1    1    2  501    0 -0.16937249086E+03  0.80290543652E+02 -0.86131393315E+02  0.26922338118E+03  0.17300000000E+03 0. -1.
       -6    1    1    2    0  502  0.14398377142E+02 -0.21516467467E+02  0.42246592676E+03  0.45724909066E+03  0.17300000000E+03 0. -1.
        6    1    1    2  502    0  0.22311470907E+03  0.28115741708E+02 -0.41320442814E+03  0.50123603997E+03  0.17300000000E+03 0. -1.
       -6    1    1    2    0  504 -0.68140595349E+02 -0.86889817893E+02 -0.15007198884E+02  0.20578434636E+03  0.17300000000E+03 0. -1.
</event>
<event>
 6   0  0.4500850E-05  0.4755770E+03  0.7546771E-02  0.1024763E+00
        1   -1    0    0  503    0  0.00000000000E+00  0.00000000000E+00  0.95816160070E+03  0.95816160070E+03  0.00000000000E+00 0.  1.
       -1   -1    0    0    0  501  0.00000000000E+00  0.00000000000E+00 -0.50558106819E+03  0.50558106819E+03  0.00000000000E+00 0. -1.
        6    1    1    2  502    0 -0.88549914861E+02 -0.86639461483E+02 -0.11019409690E+03  0.23962308466E+03  0.17300000000E+03 0. -1.
       -6    1    1    2    0  501  0.16741492043E+02 -0.75476796209E+02 -0.23100307911E+03  0.29877825704E+03  0.17300000000E+03 0. -1.
        6    1    1    2  503    0  0.16107338210E+03  0.14025128468E+03  0.52695939190E+03  0.59433177434E+03  0.17300000000E+03 0.  1.
       -6    1    1    2    0  502 -0.89264959281E+02  0.21864973011E+02  0.26681831662E+03  0.33100955286E+03  0.17300000000E+03 0. -1.
</event>
<event>
 6   0  0.4500850E-05  0.4573876E+03  0.7546771E-02  0.1038940E+00
       21   -1    0    0  502  503  0.00000000000E+00  0.00000000000E+00  0.24046034734E+04  0.24046034734E+04  0.00000000000E+00 0.  1.
       21   -1    0    0  501  504  0.00000000000E+00  0.00000000000E+00 -0.86200933046E+03  0.86200933046E+03  0.00000000000E+00 0. -1.
        6    1    1    2  501    0  0.46422720937E+03  0.23124442255E+03 -0.49182492122E+03  0.73539216614E+03  0.17300000000E+03 0. -1.
       -6    1    1    2    0  504 -0.78074246126E+02 -0.19842083683E+02  0.73437528687E+03  0.75876568066E+03  0.17300000000E+03 0. -1.
        6    1    1    2  502    0 -0.16413275876E+03 -0.86634720992E+02  0.14196618424E+04  0.14421559847E+04  0.17300000000E+03 0.  1.
       -6    1    1    2    0  503 -0.22202020448E+03 -0.12476761787E+03 -0.11961806509E+03  0.33029897239E+03  0.17300000000E+03 0. -1.
</event>
<event>
 6   0  0.4500850E-05  0.6273822E+03  0.7546771E-02  0.1016909E+00
       21   -1    0    0  504  503  0.00000000000E+00  0.00000000000E+00  0.59872122808E+03  0.59872122808E+03  0.00000000000E+00 0.  1.
       21   -1    0    0  501  504  0.00000000000E+00  0.00000000000E+00 -0.23763297718E+04  0.23763297718E+04  0.00000000000E+00 0. -1.
        6    1    1    2  501    0 -0.52166034179E+02 -0.66378761532E+03 -0.17581711692E+04  0.18879698498E+04  0.17300000000E+03 0. -1.
       -6    1    1    2    0  503 -0.17933352938E+03  0.40710145960E+03 -0.62621702466E+02  0.48139650060E+03  0.17300000000E+03 0. -1.
        6    1    1    2  502    0  0.11574866983E+03  0.15882617190E+03  0.19814137196E+03  0.32834815475E+03  0.17300000000E+03 0.  1.
       -6    1    1    2    0  502  0.11575089373E+03  0.97859983822E+02 -0.15495704398E+03  0.27733649473E+03  0.17300000000E+03 0.  1.
</event>
<event>
 6   0  0.4500850E-05  0.2021249E+03  0.7546771E-02  0.1151023E+00
       21   -1    0    0  504  503  0.00000000000E+00  0.00000000000E+00  0.16393580793E+03  0.16393580793E+03  0.00000000000E+00 0.  1.
       21   -1    0    0  502  504  0.00000000000E+00  0.00000000000E+00 -0.26186914900E+04  0.26186914900E+04  0.00000000000E+00 0.  1.
        6    1    1    2  501    0 -0.91366111331E+02 -0.25819570421E+02 -0.10313988423E+04  0.10501080841E+04  0.17300000000E+03 0.  1.
       -6    1    1    2    0  501  0.42704360695E+02  0.59786799806E+02 -0.36902671535E+03  0.41413505103E+03  0.17300000000E+03 0.  1.
        6    1    1    2  502    0  0.39417731675E+02  0.72792615822E+02 -0.10943148509E+04  0.11109934812E+04  0.17300000000E+03 0.  1.
       -6    1    1    2    0  503  0.92440189611E+01 -0.10675984521E+03  0.39984726431E+02  0.20739068152E+03  0.17300000000E+03 0.  1.
</event>
<event>
 6   0  0.4500850E-05  0.6491922E+03  0.7546771E-02  0.1000549E+00
       21   -1    0    0  502  503  0.00000000000E+00  0.00000000000E+00  0.45424806139E+03  0.45424806139E+03  0.00000000000E+00 0. -1.
       21   -1    0    0  501  504  0.00000000000E+00  0.00000000000E+00 -0.18570510881E+04  0.18570510881E+04  0.00000000000E+00 0. -1.
        6    1    1    2  501    0  0.40243175234E+03  0.31234073828E+03 -0.76252308082E+03  0.93320871238E+03  0.17300000000E+03 0. -1.
       -6    1    1    2    0  504 -0.11462134425E+03  0.19133661012E+01 -0.12569709322E+03  0.24263238195E+03  0.17300000000E+03 0. -1.
        6    1    1    2  502    0 -0.53960888271E+03 -0.25301268212E+03 -0.54028716097E+03  0.82281977366E+03  0.17300000000E+03 0. -1.
       -6    1    1    2    0  503  0.25179847461E+03 -0.61241422261E+02  0.25704308260E+02  0.31263828153E+03  0.17300000000E+03 0.  1.
</event>
<event>
 6   0  0.4500850E-05  0.2739241E+03  0.7546771E-02  0.1104228E+00
       21   -1    0    0  501  503  0.00000000000E+00  0.00000000000E+00  0.16805176038E+04  0.16805176038E+04  0.00000000000E+00 0. -1.
       21   -1    0    0  503  504  0.00000000000E+00  0.00000000000E+00 -0.28311704013E+03  0.28311704013E+03  0.00000000000E+00 0.  1.
        6    1    1    2  501    0 -0.37794120054E+03 -0.83099169420E+02  0.61780889800E+03  0.74924085411E+03  0.17300000000E+03 0. -1.
       -6    1    1    2    0  504 -0.29081353394E+02  0.73370304023E+02  0.15514270933E+02  0.19078422165E+03  0.17300000000E+03 0.  1.
        6    1    1    2  502    0  0.27316262877E+03  0.54228820995E+01  0.12258876111E+03  0.34583845037E+03  0.17300000000E+03 0.  1.
       -6    1    1    2    0  502  0.13385992517E+03  0.43059832973E+01  0.64148863362E+03  0.67777111780E+03  0.17300000000E+03 0. -1.
</event>
<event>
 6   0  0.4500850E-05  0.2815067E+03  0.7546771E-02  0.1095030E+00
       21   -1    0    0  502  503  0.00000000000E+00  0.00000000000E+00  0.11735130529E+04  0.11735130529E+04  0.00000000000E+00 0. -1.
       21   -1    0    0  503  504  0.00000000000E+00  0.00000000000E+00 -0.24694188445E+04  0.24694188445E+04  0.00000000000E+00 0. -1.
        6    1    1    2  501    0 -0.81892309599E+02  0.10129374608E+03 -0.62262429871E+03  0.65920921619E+03  0.17300000000E+03 0.  1.
       -6    1    1    2    0  501  0.12956945351E+03  0.22662091973E+02  0.56225012253E+02  0.22448177142E+03  0.17300000000E+03 0. -1.
        6    1    1    2  502    0 -0.23153265968E+03  0.27376220452E+03  0.94197650649E+03  0.10226445403E+04  0.17300000000E+03 0. -1.
       -6    1    1    2    0  504  0.18385551577E+03 -0.39771804257E+03 -0.16714830116E+04  0.17365963694E+04  0.17300000000E+03 0. -1.
</event>
<event>
 6   0  0.4500850E-05  0.8364191E+03  0.7546771E-02  0.9519946E-01
       21   -1    0    0  502  503  0.00000000000E+00  0.00000000000E+00  0.98405899376E+03  0.98405899376E+03  0.00000000000E+00 0. -1.
       21   -1    0    0  503  504  0.00000000000E+00  0.00000000000E+00 -0.90032603233E+03  0.90032603233E+03  0.00000000000E+00 0. -1.
        6    1    1    2  501    0 -0.24658765530E+03  0.48519814955E+03 -0.34858794809E+03  0.66907792792E+03  0.17300000000E+03 0. -1.
       -6    1    1    2    0  504  0.97449862943E+01  0.14741633196E+03 -0.71988129567E+02  0.23861649248E+03  0.17300000000E+03 0. -1.
        6    1    1    2  502    0  0.19826518187E+03 -0.11265921802E+03  0.15204885801E+03  0.32411269177E+03  0.17300000000E+03 0. -1.
       -6    1    1    2    0  501  0.38577487141E+02 -0.51995526349E+03  0.35226018108E+03  0.65257791391E+03  0.17300000000E+03 0. -1.
</event>
<event>
 6   0  0.4500850E-05  0.6036687E+03  0.7546771E-02  0.1002445E+00
       21   -1    0    0  501  503  0.00000000000E+00  0.00000000000E+00  0.25467173140E+04  0.25467173140E+04  0.00000000000E+00 0. -1.
       21   -1    0    0  502  504  0.00000000000E+00  0.00000000000E+00 -0.13994037183E+04  0.13994037183E+04  0.00000000000E+00 0. -1.
        6    1    1    2  501    0  0.27444764807E+03  0.73431601633E+03  0.79370573339E+03  0.11289106761E+04  0.17300000000E+03 0.  1.
       -6    1    1    2    0  504  0.36367415099E+03 -0.65940112228E+02  0.12330438520E+04  0.12988198980E+04  0.17300000000E+03 0. -1.
        6    1    1    2  502    0  0.11977483967E+03 -0.17760281985E+03 -0.49330951184E+02  0.27973436789E+03  0.17300000000E+03 0. -1.
       -6    1    1    2    0  503 -0.75789663873E+03 -0.49077308426E+03 -0.83010503843E+03  0.12386560903E+04  0.17300000000E+03 0. -1.
</event>
<event>
 6   0  0.4500850E-05  0.3009294E+03  0.7546771E-02  0.1099290E+00
       21   -1    0    0  502  503  0.00000000000E+00  0.00000000000E+00  0.39999377724E+03  0.39999377724E+03  0.00000000000E+00 0. -1.
       21   -1    0    0  501  504  0.00000000000E+00  0.00000000000E+00 -0.15357655734E+04  0.15357655734E+04  0.00000000000E+00 0. -1.
        6    1    1    2  501    0 -0.15636954383E+03 -0.29982556151E+03 -0.81250864016E+03  0.89690918821E+03  0.17300000000E+03 0. -1.
       -6    1    1    2    0  504  0.19278320276E+03  0.43099554496E+02 -0.23703813824E+03  0.35374993123E+03  0.17300000000E+03 0.  1.
        6    1    1    2  502    0 -0.12446919091E+03  0.24961734486E+03 -0.26443022068E+03  0.42148990492E+03  0.17300000000E+03 0. -1.
       -6    1    1    2    0  503  0.88055531976E+02  0.71086621536E+01  0.17820520290E+03  0.26361032630E+03  0.17300000000E+03 0. -1.
</event>
<event>
 6   0  0.4500850E-05  0.3893495E+03  0.7546771E-02  0.1066948E+00
       21   -1    0    0  502  503  0.00000000000E+00  0.00000000000E+00  0.11457811814E+04  0.11457811814E+04  0.00000000000E+00 0. -1.
       21   -1    0    0  501  504  0.00000000000E+00  0.00000000000E+00 -0.41206975420E+03  0.41206975420E+03  0.00000000000E+00 0. -1.
        6    1    1    2  501    0 -0.15376849612E+03  0.68658295852E+02  0.44566817473E+02  0.24550746059E+03  0.17300000000E+03 0. -1.
       -6    1    1    2    0  503 -0.28100645787E+03 -0.15222004470E+03  0.83968210611E+02  0.37298154347E+03  0.17300000000E+03 0. -1.
        6    1    1    2  502    0  0.31879724286E+03  0.16990122041E+03  0.59036285575E+03  0.71341110743E+03  0.17300000000E+03 0. -1.
       -6    1    1    2    0  504  0.11597771113E+03 -0.86339471564E+02  0.14813543313E+02  0.22595082406E+03  0.17300000000E+03 0.  1.
</event>
<event>
 6   0  0.4500850E-05  0.1836527E+03  0.7546771E-02  0.1164468E+00
       21   -1    0    0  501  503  0.00000000000E+00  0.00000000000E+00  0.18981974173E+04  0.18981974173E+04  0.00000000000E+00 0. -1.
       21   -1    0    0  502  504  0.00000000000E+00  0.00000000000E+00 -0.14196608068E+03  0.14196608068E+03  0.00000000000E+00 0.  1.
        6    1    1    2  501    0 -0.26673664217E+01  0.16334903584E+02  0.59106702983E+03  0.61608698872E+03  0.17300000000E+03 0. -1.
       -6    1    1    2    0  503 -0.54100318975E+02 -0.65154536851E+02  0.34614631172E+03  0.39612905385E+03  0.17300000000E+03 0.  1.
        6    1    1    2  502    0 -0.70355333178E+01 -0.30663299869E+02  0.80793702229E+03  0.82685002793E+03  0.17300000000E+03 0. -1.
       -6    1    1    2    0  504  0.63803218714E+02  0.79482933137E+02  0.11080972763E+02  0.20109742747E+03  0.17300000000E+03 0.  1.
</event>
<event>
 6   0  0.4500850E-05  0.4773446E+03  0.7546771E-02  0.1044674E+00
       21   -1    0    0  501  503  0.00000000000E+00  0.00000000000E+00  0.17426411267E+04  0.17426411267E+04  0.00000000000E+00 0.  1.
       21   -1    0    0  503  504  0.00000000000E+00  0.00000000000E+00 -0.46362602624E+03  0.46362602624E+03  0.00000000000E+00 0.  1.
        6    1    1    2  501    0  0.18214071837E+03  0.81271291760E+02  0.74377567287E+03  0.78924743630E+03  0.17300000000E+03 0.  1.
       -6    1    1    2    0  502  0.13246695991E+03  0.18059680942E+02  0.61761097389E+03  0.65516865204E+03  0.17300000000E+03 0. -1.
        6    1    1    2  502    0 -0.23427338229E+03 -0.22671936546E+03  0.18228325790E+03  0.41163317946E+03  0.17300000000E+03 0.  1.
       -6    1    1    2    0  504 -0.80334295993E+02  0.12738839276E+03 -0.26465480416E+03  0.35021788517E+03  0.17300000000E+03 0.  1.
</event>
<event>
 6   0  0.4500850E-05  0.2271611E+03  0.7546771E-02  0.1132423E+00
       21   -1    0    0  501  503  0.00000000000E+00  0.00000000000E+00  0.28308502069E+03  0.28308502069E+03  0.00000000000E+00 0.  1.
       21   -1    0    0  502  504  0.00000000000E+00  0.00000000000E+00 -0.13820593505E+04  0.13820593505E+04  0.00000000000E+00 0. -1.
        6    1    1    2  501    0  0.41485063573E+02 -0.15666238031E+03 -0.11086950972E+03  0.26169669484E+03  0.17300000000E+03 0.  1.
       -6    1    1    2    0  503  0.11700183444E+03  0.23894506449E+02 -0.15645736953E+03  0.26204634167E+03  0.17300000000E+03 0. -1.
        6    1    1    2  502    0 -0.15967583446E+03  0.11339007783E+02 -0.89117189054E+03  0.92181412644E+03  0.17300000000E+03 0.  1.
       -6    1    1    2    0  504  0.11889364482E+01  0.12142886608E+03  0.59524439950E+02  0.21958720828E+03  0.17300000000E+03 0.  1.
</event>
<event>
 6   0  0.4500850E-05  0.3099461E+03  0.7546771E-02  0.1086521E+00
       21   -1    0    0  502  503  0.00000000000E+00  0.00000000000E+00  0.12900303608E+04  0.12900303608E+04  0.00000000000E+00 0. -1.
       21   -1    0    0  503  504  0.00000000000E+00  0.00000000000E+00 -0.49478986994E+03  0.49478986994E+03  0.00000000000E+00 0.  1.
        6    1    1    2  501    0  0.10074262402E+03 -0.57813476925E+02  0.54593586979E+02  0.21540876061E+03  0.17300000000E+03 0. -1.
       -6    1    1    2    0  501  0.28721468007E+03  0.25219835840E+03  0.42941310222E+03  0.60035064486E+03  0.17300000000E+03 0. -1.
        6    1    1    2  502    0  0.41600015365E+02  0.18174699533E+02  0.41245478098E+03  0.44956515361E+03  0.17300000000E+03 0. -1.
       -6    1    1    2    0  504 -0.42955731945E+03 -0.21255958101E+03 -0.10122097936E+03  0.51949567163E+03  0.17300000000E+03 0.  1.
</event>
<event>
 6   0  0.4500850E-05  0.5498103E+03  0.7546771E-02  0.1001538E+00
        2   -1    0    0  502    0  0.00000000000E+00  0.00000000000E+00  0.64768733039E+03  0.64768733039E+03  0.00000000000E+00 0.  1.
       -2   -1    0    0    0  501  0.00000000000E+00  0.00000000000E+00 -0.50664776607E+03  0.50664776607E+03  0.00000000000E+00 0. -1.
        6    1    1    2  502    0  0.10514249743E+03  0.15502024125E+03  0.10191409586E+03  0.27459370513E+03  0.17300000000E+03 0.  1.
       -6    1    1    2    0  501  0.25067007930E+02  0.35118336746E+02  0.34729010473E+01  0.17833315313E+03  0.17300000000E+03 0.  1.
        6    1    1    2  503    0  0.17756585865E+03  0.62487731982E+02  0.72407820520E+02  0.26571835330E+03  0.17300000000E+03 0.  1.
       -6    1    1    2    0  503 -0.30777536400E+03 -0.25262630998E+03 -0.36755253108E+02  0.43568988491E+03  0.17300000000E+03 0. -1.
</event>
<event>
 6   0  0.4500850E-05  0.2642743E+03  0.7546771E-02  0.1112965E+00
       21   -1    0    0  502  503  0.00000000000E+00  0.00000000000E+00  0.77539548705E+03  0.77539548705E+03  0.00000000000E+00 0.  1.
       21   -1    0    0  501  504  0.00000000000E+00  0.00000000000E+00 -0.13600426208E+04  0.13600426208E+04  0.00000000000E+00 0.  1.
        6    1    1    2  501    0  0.20595535997E+02 -0.19145121775E+01 -0.27820296550E+03  0.32825863504E+03  0.17300000000E+03 0.  1.
       -6    1    1    2    0  503 -0.79143172009E+02 -0.27306772972E+03 -0.51512270571E+03  0.61327810056E+03  0.17300000000E+03 0.  1.
        6    1    1    2  502    0 -0.54940679801E+02  0.12125658576E+03 -0.44258190837E+03  0.49348696386E+03  0.17300000000E+03 0. -1.
       -6    1    1    2    0  504  0.11348831581E+03  0.15372565614E+03  0.65126044583E+03  0.70041440840E+03  0.17300000000E+03 0.  1.
</event>
<event>
 6   0  0.4500850E-05  0.4727571E+03  0.7546771E-02  0.1052560E+00
       21   -1    0    0  502  503  0.00000000000E+00  0.00000000000E+00  0.27801979881E+03  0.27801979881E+03  0.00000000000E+00 0. -1.
       21   -1    0    0  501  504  0.00000000000E+00  0.00000000000E+00 -0.13061798237E+04  0.13061798237E+04  0.00000000000E+00 0.  1.
        6    1    1    2  501    0  0.29695113582E+02  0.68501822333E+02 -0.62603510060E+03  0.65377614412E+03  0.17300000000E+03 0.  1.
       -6    1    1    2    0  504  0.78759486685E+02 -0.22232330572E+03 -0.11542417398E+02  0.29273355873E+03  0.17300000000E+03 0. -1.
        6    1    1    2  502    0 -0.25020771121E+02 -0.72903665766E+02 -0.73549481130E+02  0.20317359485E+03  0.17300000000E+03 0. -1.
       -6    1    1    2    0  503 -0.83433829147E+02  0.22672514915E+03 -0.31703302578E+03  0.43451632482E+03  0.17300000000E+03 0. -1.
</event>
<event>
 6   0  0.4500850E-05  0.2390879E+03  0.7546771E-02  0.1124492E+00
       21   -1    0    0  501  503  0.00000000000E+00  0.00000000000E+00  0.33056531440E+03  0.33056531440E+03  0.00000000000E+00 0.  1.
       21   -1    0    0  502  504  0.00000000000E+00  0.00000000000E+00 -0.12829231225E+04  0.12829231225E+04  0.00000000000E+00 0. -1.
        6    1    1    2  501    0  0.84642659383E+02  0.98887929118E+02  0.16347871545E+03  0.27128857831E+03  0.17300000000E+03 0.  1.
       -6    1    1    2    0  503  0.34650866188E+01  0.14421359745E+03 -0.34341932486E+03  0.41070110933E+03  0.17300000000E+03 0. -1.
        6    1    1    2  502    0 -0.85309530298E+02  0.25316315188E+02 -0.22230267027E+03  0.29540837663E+03  0.17300000000E+03 0. -1.
       -6    1    1    2    0  504 -0.27982157033E+01 -0.26841784176E+03 -0.55011452845E+03  0.63609037266E+03  0.17300000000E+03 0. -1.
</event>
<event>
 6   0  0.4500850E-05  0.4830469E+03  0.7546771E-02  0.1027971E+00
       21   -1    0    0  501  503  0.00000000000E+00  0.00000000000E+00  0.11594007217E+04  0.11594007217E+04  0.00000000000E+00 0. -1.
       21   -1    0    0  502  504  0.00000000000E+00  0.00000000000E+00 -0.64800079604E+03  0.64800079604E+03  0.00000000000E+00 0.  1.
        6    1    1    2  501    0 -0.29872929818E+03 -0.16360839385E+03  0.54859624218E+02  0.38593455209E+03  0.17300000000E+03 0.  1.
       -6    1    1    2    0  503  0.24619299924E+03  0.11262518430E+03  0.63900380932E+03  0.71522744169E+03  0.17300000000E+03 0. -1.
        6    1    1    2  502    0  0.30755829640E+03  0.97866445494E+02 -0.13818512982E+03  0.39140014939E+03  0.17300000000E+03 0.  1.
       -6    1    1    2    0  504 -0.25502199747E+03 -0.46883235948E+02 -0.44278378074E+02  0.31483937456E+03  0.17300000000E+03 0.  1.
</event>
<event>
 6   0  0.4500850E-05  0.2686513E+03  0.7546771E-02  0.1114359E+00
       21   -1    0    0  501  503  0.00000000000E+00  0.00000000000E+00  0.19896764286E+03  0.19896764286E+03  0.00000000000E+00 0. -1.
       21   -1    0    0  502  504  0.00000000000E+00  0.00000000000E+00 -0.18867213128E+04  0.18867213128E+04  0.00000000000E+00 0. -1.
        6    1    1    2  501    0 -0.21807784951E+03 -0.18017683643E+03 -0.62957915565E+03  0.71156205215E+03  0.17300000000E+03 0. -1.
       -6    1    1    2    0  504 -0.58800327046E+02  0.15007508147E+03 -0.54403513952E+03  0.59319747266E+03  0.17300000000E+03 0. -1.
        6    1    1    2  502    0  0.74911512221E+02  0.54212656137E+02 -0.47129904572E+03  0.51049244582E+03  0.17300000000E+03 0. -1.
       -6    1    1    2    0  503  0.20196666434E+03 -0.24110901180E+02 -0.42840329014E+02  0.27043698499E+03  0.17300000000E+03 0. -1.
</event>
<event>
 6   0  0.4500850E-05  0.2385615E+03  0.7546771E-02  0.1124984E+00
       21   -1    0    0  501  503  0.00000000000E+00  0.00000000000E+00  0.57930942670E+03  0.57930942670E+03  0.00000000000E+00 0.  1.
       21   -1    0    0  502  504  0.00000000000E+00  0.00000000000E+00 -0.77807474607E+03  0.77807474607E+03  0.00000000000E+00 0.  1.
        6    1    1    2  501    0 -0.10606532644E+03 -0.19729519272E+02 -0.14881582753E+03  0.25241683369E+03  0.17300000000E+03 0. -1.
       -6    1    1    2    0  503 -0.49583885040E+02 -0.19734001693E+03  0.33598705285E+03  0.42920617845E+03  0.17300000000E+03 0.  1.
        6    1    1    2  502    0  0.60760140630E+01  0.54143401974E+02 -0.34797939919E+03  0.39241188588E+03  0.17300000000E+03 0.  1.
       -6    1    1    2    0  504  0.14957319742E+03  0.16292613423E+03 -0.37957145502E+02  0.28334927474E+03  0.17300000000E+03 0. -1.
</event>
<event>
 6   0  0.4500850E-05  0.3493304E+03  0.7546771E-02  0.1066007E+00
       21   -1    0    0  502  503  0.00000000000E+00  0.00000000000E+00  0.13367468098E+04  0.13367468098E+04  0.00000000000E+00 0. -1.
       21   -1    0    0  501  504  0.00000000000E+00  0.00000000000E+00 -0.77365931501E+03  0.77365931501E+03  0.00000000000E+00 0. -1.
        6    1    1    2  501    0  0.21538096457E+00 -0.31221210434E+03  0.61112836569E+02  0.36213288069E+03  0.17300000000E+03 0. -1.
       -6    1    1    2    0  504  0.15313810098E+03 -0.22196993213E+03 -0.19336706724E+03  0.37422152722E+03  0.17300000000E+03 0. -1.
        6    1    1    2  502    0 -0.28983621669E+03  0.25848287343E+03 -0.15567572494E+03  0.45274977603E+03  0.17300000000E+03 0. -1.
       -6    1    1    2    0  503  0.13648273474E+03  0.27569916304E+03  0.85101745036E+03  0.92130194084E+03  0.17300000000E+03 0. -1.
</event>
<event>
 6   0  0.4500850E-05  0.3038614E+03  0.7546771E-02  0.1094786E+00
       21   -1    0    0  502  503  0.00000000000E+00  0.00000000000E+00  0.22909588404E+04  0.22909588404E+04  0.00000000000E+00 0. -1.
       21   -1    0    0  501  504  0.00000000000E+00  0.00000000000E+00 -0.26021084517E+03  0.26021084517E+03  0.00000000000E+00 0. -1.
        6    1    1    2  501    0 -0.10780949456E+02 -0.98711997245E+02  0.81134027822E+03  0.83550124735E+03  0.17300000000E+03 0. -1.
       -6    1    1    2    0  504 -0.28321988777E+01  0.37718609908E+03  0.23484105020E+03  0.47681935106E+03  0.17300000000E+03 0.  1.
        6    1    1    2  502    0 -0.16780232305E+03 -0.10897666196E+03  0.67264723203E+02  0.27292320433E+03  0.17300000000E+03 0. -1.
       -6    1    1    2    0  503  0.18141547138E+03 -0.16949743987E+03  0.91730194360E+03  0.96592588283E+03  0.17300000000E+03 0. -1.
</event>
<event>
 6   0  0.4500850E-05  0.3398410E+03  0.7546771E-02  0.1088487E+00
       21   -1    0    0  501  503  0.00000000000E+00  0.00000000000E+00  0.15289480681E+04  0.15289480681E+04  0.00000000000E+00 0. -1.
       21   -1    0    0  503  504  0.00000000000E+00  0.00000000000E+00 -0.38799486750E+03  0.38799486750E+03  0.00000000000E+00 0. -1.
        6    1    1    2  501    0  0.35580101783E+02 -0.17551133177E+03  0.80205652910E+03  0.83981774635E+03  0.17300000000E+03 0. -1.
       -6    1    1    2    0  502 -0.27035707736E+03  0.18049758233E+03  0.23870248673E+03  0.43883961043E+03  0.17300000000E+03 0.  1.
        6    1    1    2  502    0  0.29967693480E+03  0.36187890562E+02 -0.10075607287E+03  0.36221073272E+03  0.17300000000E+03 0. -1.
       -6    1    1    2    0  504 -0.64899959225E+02 -0.41174141130E+02  0.20095025766E+03  0.27607484612E+03  0.17300000000E+03 0.  1.
</event>
<event>
 6   0  0.4500850E-05  0.2123167E+03  0.7546771E-02  0.1145520E+00
       21   -1    0    0  501  503  0.00000000000E+00  0.00000000000E+00  0.39005229501E+03  0.39005229501E+03  0.00000000000E+00 0.  1.
       21   -1    0    0  503  504  0.00000000000E+00  0.00000000000E+00 -0.17566136375E+04  0.17566136375E+04  0.00000000000E+00 0.  1.
        6    1    1    2  501    0 -0.26071104716E+02  0.36767864004E+01  0.23460325981E+03  0.29267885262E+03  0.17300000000E+03 0.  1.
       -6    1    1    2    0  504  0.54123323270E+01  0.10205320225E+03 -0.11632653647E+04  0.11804911936E+04  0.17300000000E+03 0.  1.
        6    1    1    2  502    0 -0.12623541930E+03 -0.20636051144E+02 -0.57949807246E+02  0.22281922685E+03  0.17300000000E+03 0. -1.
       -6    1    1    2    0  502  0.14689419169E+03 -0.85093937505E+02 -0.37994943042E+03  0.45067665951E+03  0.17300000000E+03 0.  1.
</event>
<event>
 6   0  0.4500850E-05  0.3525703E+03  0.7546771E-02  0.1076244E+00
       21   -1    0    0  504  503  0.00000000000E+00  0.00000000000E+00  0.94305615055E+03  0.94305615055E+03  0.00000000000E+00 0.  1.
       21   -1    0    0  501  504  0.00000000000E+00  0.00000000000E+00 -0.71001613846E+03  0.71001613846E+03  0.00000000000E+00 0.  1.
        6    1    1    2  501    0  0.10546597571E+03 -0.27058285984E+03 -0.20667400917E+03  0.39620865985E+03  0.17300000000E+03 0.  1.
       -6    1    1    2    0  503  0.90991009236E+01  0.31311625401E+03  0.59867902607E+03  0.69747412742E+03  0.17300000000E+03 0.  1.
        6    1    1    2  502    0  0.21299202999E+02  0.15824739287E+03 -0.99992198942E+02  0.25577985309E+03  0.17300000000E+03 0. -1.
       -6    1    1    2    0  502 -0.13586427963E+03 -0.20078078705E+03 -0.58972805868E+02  0.30360964866E+03  0.17300000000E+03 0. -1.
</event>
<event>
 6   0  0.4500850E-05  0.3297069E+03  0.7546771E-02  0.1080554E+00
       21   -1    0    0  502  503  0.00000000000E+00  0.00000000000E+00  0.12748005945E+04  0.12748005945E+04  0.00000000000E+00 0.  1.
       21   -1    0    0  501  504  0.00000000000E+00  0.00000000000E+00 -0.98948792418E+03  0.98948792418E+03  0.00000000000E+00 0.  1.
        6    1    1    2  501    0 -0.16725959810E+03  0.88030607317E+02 -0.43692033451E+03  0.50651114468E+03  0.17300000000E+03 0. -1.
       -6    1    1    2    0  503  0.16609405554E+02  0.27724519468E+03  0.91653546051E+03  0.97319423586E+03  0.17300000000E+03 0.  1.
        6    1    1    2  502    0 -0.13531539007E+03 -0.30621740135E+03 -0.23288785887E+03  0.44299560550E+03  0.17300000000E+03 0. -1.
       -6    1    1    2    0  504  0.28596558261E+03 -0.59058400647E+02  0.38585403206E+02  0.34158753266E+03  0.17300000000E+03 0.  1.
</event>
<event>
 6   0  0.4500850E-05  0.3275689E+03  0.7546771E-02  0.1090713E+00
       21   -1    0    0  504  503  0.00000000000E+00  0.00000000000E+00  0.86434583194E+03  0.86434583194E+03  0.00000000000E+00 0.  1.
       21   -1    0    0  502  504  0.00000000000E+00  0.00000000000E+00 -0.94982492615E+03  0.94982492615E+03  0.00000000000E+00 0.  1.
        6    1    1    2  501    0  0.11017522898E+03 -0.25231798532E+03 -0.18828443391E+03  0.37574322994E+03  0.17300000000E+03 0.  1.
       -6    1    1    2    0  501 -0.33791690638E+03 -0.49946742475E+02 -0.23495496122E+03  0.44923862980E+03  0.17300000000E+03 0. -1.
        6    1    1    2  502    0  0.88386433500E+02  0.41964760217E+02 -0.24371967450E+03  0.31448606084E+03  0.17300000000E+03 0.  1.
       -6    1    1    2    0  503  0.13935524390E+03  0.26029996757E+03  0.58147997542E+03  0.67470283751E+03  0.17300000000E+03 0.  1.
</event>
<event>
 6   0  0.4500850E-05  0.3129527E+03  0.7546771E-02  0.1085108E+00
       21   -1    0    0  502  503  0.00000000000E+00  0.00000000000E+00  0.25897063323E+03  0.25897063323E+03  0.00000000000E+00 0. -1.
       21   -1    0    0  503  504  0.00000000000E+00  0.00000000000E+00 -0.10809716832E+04  0.10809716832E+04  0.00000000000E+00 0.  1.
        6    1    1    2  501    0  0.46881057620E+02  0.88192685612E+02 -0.13390981956E+03  0.24049245962E+03  0.17300000000E+03 0. -1.
       -6    1    1    2    0  504  0.80960567487E+02  0.47860371876E+02 -0.18181986073E+03  0.26801621302E+03  0.17300000000E+03 0.  1.
        6    1    1    2  502    0 -0.10989317628E+03  0.47250873476E+02  0.53711454647E+02  0.21707850100E+03  0.17300000000E+03 0. -1.
       -6    1    1    2    0  501 -0.17948448825E+02 -0.18330393096E+03 -0.55998282429E+03  0.61435514275E+03  0.17300000000E+03 0. -1.
</event>
<event>
 6   0  0.4500850E-05  0.4631679E+03  0.7546771E-02  0.1057583E+00
       21   -1    0    0  504  503  0.00000000000E+00  0.00000000000E+00  0.15917246464E+03  0.15917246464E+03  0.00000000000E+00 0.  1.
       21   -1    0    0  502  504  0.00000000000E+00  0.00000000000E+00 -0.22673889566E+04  0.22673889566E+04  0.00000000000E+00 0.  1.
        6    1    1    2  501    0  0.18819474498E+03 -0.18882082604E+03 -0.70900346192E+03  0.77697199139E+03  0.17300000000E+03 0.  1.
       -6    1    1    2    0  501 -0.11809789997E+03  0.29968868058E+02 -0.71995225539E+03  0.75040355614E+03  0.17300000000E+03 0. -1.
        6    1    1    2  502    0 -0.86677811466E+02  0.16368895406E+03 -0.67960349502E+03  0.72532546289E+03  0.17300000000E+03 0. -1.
       -6    1    1    2    0  503  0.16580966454E+02 -0.48369960816E+01  0.34272039851E+00  0.17386041078E+03  0.17300000000E+03 0.  1.
</event>
<event>
 6   0  0.4500850E-05  0.2227967E+03  0.7546771E-02  0.1133256E+00
       21   -1    0    0  502  503  0.00000000000E+00  0.00000000000E+00  0.36462208323E+03  0.36462208323E+03  0.00000000000E+00 0. -1.
       21   -1    0    0  503  504  0.00000000000E+00  0.00000000000E+00 -0.14388552743E+04  0.14388552743E+04  0.00000000000E+00 0. -1.
        6    1    1    2  501    0  0.84672108998E+01 -0.12619939030E+03 -0.84855101603E+02  0.23049374837E+03  0.17300000000E+03 0. -1.
       -6    1    1    2    0  501 -0.14498584812E+03 -0.17289266217E+02  0.44021444777E+02  0.23062242406E+03  0.17300000000E+03 0.  1.
        6    1    1    2  502    0 -0.80736505433E+01  0.17501777685E+03  0.36139636096E+02  0.24886036113E+03  0.17300000000E+03 0. -1.
       -6    1    1    2    0  504  0.14459228776E+03 -0.31529120337E+02 -0.10695391704E+04  0.10935008240E+04  0.17300000000E+03 0. -1.
</event>
<event>
 6   0  0.4500850E-05  0.1921468E+03  0.7546771E-02  0.1157713E+00
       21   -1    0    0  501  503  0.00000000000E+00  0.00000000000E+00  0.73223192831E+03  0.73223192831E+03  0.00000000000E+00 0. -1.
       21   -1    0    0  502  504  0.00000000000E+00  0.00000000000E+00 -0.34233735724E+03  0.34233735724E+03  0.00000000000E+00 0.  1.
        6    1    1    2  501    0  0.57304224999E+02  0.83232041174E+02  0.33709114585E+03  0.39213618488E+03  0.17300000000E+03 0. -1.
       -6    1    1    2    0  504 -0.28784199177E+02  0.85145675055E+01  0.18392143226E+03  0.25427764594E+03  0.17300000000E+03 0.  1.
        6    1    1    2  502    0  0.46200980109E+01  0.50376068912E+02 -0.73115311662E+02  0.19450949186E+03  0.17300000000E+03 0.  1.
       -6    1    1    2    0  503 -0.33140123833E+02 -0.14212267759E+03 -0.58002695376E+02  0.23364596287E+03  0.17300000000E+03 0.  1.
</event>
<event>
 6   0  0.4500850E-05  0.1114849E+04  0.7546771E-02  0.9230295E-01
        1   -1    0    0  502    0  0.00000000000E+00  0.00000000000E+00  0.70960530357E+03  0.70960530357E+03  0.00000000000E+00 0.  1.
       -1   -1    0    0    0  501  0.00000000000E+00  0.00000000000E+00 -0.16931617256E+04  0.16931617256E+04  0.00000000000E+00 0. -1.
        6    1    1    2  502    0 -0.18347608939E+03 -0.28879441450E+03 -0.11932467624E+03  0.40153837623E+03  0.17300000000E+03 0.  1.
       -6    1    1    2    0  503 -0.59187399839E+03  0.26806171609E+03 -0.78788634649E+03  0.10357923579E+04  0.17300000000E+03 0. -1.
        6    1    1    2  503    0  0.69015887659E+02 -0.56021946302E+02  0.91839614494E+02  0.21509338904E+03  0.17300000000E+03 0.  1.
       -6    1    1    2    0  501  0.70633420012E+03  0.76754644715E+02 -0.16818501374E+03  0.75034290601E+03  0.17300000000E+03 0.  1.
</event>
<event>
 6   0  0.4500850E-05  0.2231403E+03  0.7546771E-02  0.1138193E+00
       21   -1    0    0  501  503  0.00000000000E+00  0.00000000000E+00  0.89008468239E+03  0.89008468239E+03  0.00000000000E+00 0.  1.
       21   -1    0    0  503  504  0.00000000000E+00  0.00000000000E+00 -0.16503285348E+04  0.16503285348E+04  0.00000000000E+00 0. -1.
        6    1    1    2  501    0  0.20963965705E+03  0.16457905665E+03  0.14258931504E+02  0.31806818266E+03  0.17300000000E+03 0.  1.
       -6    1    1    2    0  502 -0.10509867022E+03 -0.60367429361E+02  0.67721384025E+03  0.70939237551E+03  0.17300000000E+03 0.  1.
        6    1    1    2  502    0 -0.10768964234E+03 -0.54558592050E+02 -0.47430998013E+03  0.51910755753E+03  0.17300000000E+03 0. -1.
       -6    1    1    2    0  504  0.31486555237E+01 -0.49653035235E+02 -0.97740664400E+03  0.99384510145E+03  0.17300000000E+03 0.  1.
</event>
<event>
 6   0  0.4500850E-05  0.2122590E+03  0.7546771E-02  0.1142710E+00
       21   -1    0    0  504  503  0.00000000000E+00  0.00000000000E+00  0.22812496886E+03  0.22812496886E+03  0.00000000000E+00 0. -1.
       21   -1    0    0  502  504  0.00000000000E+00  0.00000000000E+00 -0.84459695250E+03  0.84459695250E+03  0.00000000000E+00 0.  1.
        6    1    1    2  501    0 -0.34370660754E+02 -0.65154767132E+02 -0.72126252592E+02  0.20138937984E+03  0.17300000000E+03 0.  1.
       -6    1    1    2    0  501  0.11827702970E+02 -0.87871401837E+02 -0.19841280446E+03  0.27777314267E+03  0.17300000000E+03 0. -1.
        6    1    1    2  502    0 -0.99103031519E+02 -0.16457378472E+02 -0.85056958312E+02  0.21738431940E+03  0.17300000000E+03 0. -1.
       -6    1    1    2    0  503  0.12164598930E+03  0.16948354744E+03 -0.26087596829E+03  0.37617507945E+03  0.17300000000E+03 0.  1.
</event>
<event>
 6   0  0.4500850E-05  0.2779457E+03  0.7546771E-02  0.1096975E+00
       21   -1    0    0  501  503  0.00000000000E+00  0.00000000000E+00  0.18269321420E+03  0.18269321420E+03  0.00000000000E+00 0.  1.
       21   -1    0    0  502  504  0.00000000000E+00  0.00000000000E+00 -0.34042897768E+04  0.34042897768E+04  0.00000000000E+00 0. -1.
        6    1    1    2  501    0  0.38755288172E+02  0.70436072371E+02 -0.51949662977E+03  0.55341572168E+03  0.17300000000E+03 0. -1.
       -6    1    1    2    0  504  0.15097349975E+03 -0.33784381362E+03 -0.18732028493E+04  0.19172243882E+04  0.17300000000E+03 0. -1.
        6    1    1    2  502    0 -0.21098244000E+03  0.34511788637E+03 -0.81355308351E+03  0.92488786627E+03  0.17300000000E+03 0.  1.
       -6    1    1    2    0  503  0.21253652068E+02 -0.77710145115E+02 -0.15343999999E+02  0.19145501486E+03  0.17300000000E+03 0.  1.
</event>
<event>
 6   0  0.4500850E-05  0.3542324E+03  0.7546771E-02  0.1080192E+00
       21   -1    0    0  501  503  0.00000000000E+00  0.00000000000E+00  0.17673815808E+04  0.17673815808E+04  0.00000000000E+00 0. -1.
       21   -1    0    0  502  504  0.00000000000E+00  0.00000000000E+00 -0.20033660500E+03  0.20033660500E+03  0.00000000000E+00 0.  1.
        6    1    1    2  501    0  0.19740541843E+03  0.29704416259E+03  0.80590413639E+03  0.89811725894E+03  0.17300000000E+03 0. -1.
       -6    1    1    2    0  504 -0.16881556789E+03 -0.20288903815E+02  0.29281761620E+03  0.38023873020E+03  0.17300000000E+03 0.  1.
        6    1    1    2  502    0  0.90063622904E+02 -0.74073251737E+02  0.24626477370E+03  0.32275941746E+03  0.17300000000E+03 0. -1.
       -6    1    1    2    0  503 -0.11865347344E+03 -0.20268200704E+03  0.22205844955E+03  0.36660277925E+03  0.17300000000E+03 0.  1.
</event>
<event>
 6   0  0.4500850E-05  0.2972996E+03  0.7546771E-02  0.1093071E+00
       21   -1    0    0  504  503  0.00000000000E+00  0.00000000000E+00  0.33715737831E+03  0.33715737831E+03  0.00000000000E+00 0. -1.
       21   -1    0    0  501  504  0.00000000000E+00  0.00000000000E+00 -0.19805136710E+04  0.19805136710E+04  0.00000000000E+00 0. -1.
        6    1    1    2  501    0 -0.12336021581E+03  0.24248083013E-02 -0.31267941001E+03  0.37804120978E+03  0.17300000000E+03 0. -1.
       -6    1    1    2    0  503  0.35828811581E+03 -0.25969767339E+03  0.65244867409E+01  0.47516820645E+03  0.17300000000E+03 0. -1.
        6    1    1    2  502    0 -0.40176906298E+02 -0.45752157759E+02 -0.29201196041E+03  0.34482956480E+03  0.17300000000E+03 0.  1.
       -6    1    1    2    0  502 -0.19475099370E+03  0.30544740634E+03 -0.10451894090E+04  0.11196320683E+04  0.17300000000E+03 0.  1.
</event>
<event>
 6   0  0.4500850E-05  0.2471832E+03  0.7546771E-02  0.1118221E+00
       21   -1    0    0  502  503  0.00000000000E+00  0.00000000000E+00  0.47580360518E+03  0.47580360518E+03  0.00000000000E+00 0.  1.
       21   -1    0    0  501  504  0.00000000000E+00  0.00000000000E+00 -0.12685402002E+04  0.12685402002E+04  0.00000000000E+00 0.  1.
        6    1    1    2  501    0  0.12180493428E+03  0.73765430484E+02 -0.55985164355E+03  0.60302623785E+03  0.17300000000E+03 0.  1.
       -6    1    1    2    0  504 -0.16705368794E+03  0.22433898946E+03 -0.92326278097E+02  0.34159633850E+03  0.17300000000E+03 0.  1.
        6    1    1    2  502    0  0.48839917498E+02 -0.19113401490E+03 -0.39484307863E+03  0.47407552767E+03  0.17300000000E+03 0. -1.
       -6    1    1    2    0  503 -0.35911638346E+01 -0.10697040505E+03  0.25428440530E+03  0.32564570133E+03  0.17300000000E+03 0.  1.
</event>
<event>
 6   0  0.4500850E-05  0.2271588E+03  0.7546771E-02  0.1135028E+00
       21   -1    0    0  501  503  0.00000000000E+00  0.00000000000E+00  0.37159316342E+03  0.37159316342E+03  0.00000000000E+00 0.  1.
       21   -1    0    0  502  504  0.00000000000E+00  0.00000000000E+00 -0.60674648499E+03  0.60674648499E+03  0.00000000000E+00 0.  1.
        6    1    1    2  501    0 -0.10264874630E+03  0.40810598148E+02 -0.12963292092E+03  0.24276730469E+03  0.17300000000E+03 0.  1.
       -6    1    1    2    0  504  0.12312937426E+03  0.15797893552E+03  0.51410171255E+02  0.26961118779E+03  0.17300000000E+03 0.  1.
        6    1    1    2  502    0 -0.44284790246E+02 -0.11713717841E+02 -0.34457690463E+02  0.18224896780E+03  0.17300000000E+03 0. -1.
       -6    1    1    2    0  503  0.23804162289E+02 -0.18707581583E+03 -0.12247288144E+03  0.28371218814E+03  0.17300000000E+03 0.  1.
</event>
<event>
 6   0  0.4500850E-05  0.3334059E+03  0.7546771E-02  0.1069994E+00
       21   -1    0    0  501  503  0.00000000000E+00  0.00000000000E+00  0.13016115926E+04  0.13016115926E+04  0.00000000000E+00 0. -1.
       21   -1    0    0  502  504  0.00000000000E+00  0.00000000000E+00 -0.84531483906E+03  0.84531483906E+03  0.00000000000E+00 0. -1.
        6    1    1    2  501    0 -0.87383976616E+02 -0.91383193848E+02  0.10127897273E+03  0.23700902473E+03  0.17300000000E+03 0. -1.
       -6    1    1    2    0  503  0.35455724489E+03 -0.24758980365E+03 -0.16184840101E+03  0.49308767546E+03  0.17300000000E+03 0.  1.
        6    1    1    2  502    0  0.11914793847E+03 -0.20221987721E+01 -0.34143965413E+03  0.40088696404E+03  0.17300000000E+03 0. -1.
       -6    1    1    2    0  504 -0.38632120674E+03  0.34099519627E+03  0.85830583593E+03  0.10159427674E+04  0.17300000000E+03 0. -1.
</event>
<event>
 6   0  0.4500850E-05  0.3083140E+03  0.7546771E-02  0.1101808E+00
       21   -1    0    0  501  503  0.00000000000E+00  0.00000000000E+00  0.18017433845E+04  0.18017433845E+04  0.00000000000E+00 0. -1.
       21   -1    0    0  502  504  0.00000000000E+00  0.00000000000E+00 -0.26197641869E+03  0.26197641869E+03  0.00000000000E+00 0.  1.
        6    1    1    2  501    0  0.72677408713E+02  0.80955488088E+02  0.49975439645E+03  0.53992522960E+03  0.17300000000E+03 0.  1.
       -6    1    1    2    0  504 -0.43240954127E+02 -0.14007295787E+02  0.82874269416E+03  0.84782630154E+03  0.17300000000E+03 0. -1.
        6    1    1    2  502    0 -0.30447517396E+02  0.22956001408E+03  0.38356385383E+02  0.29159057543E+03  0.17300000000E+03 0.  1.
       -6    1    1    2    0  503  0.10110628097E+01 -0.29650820638E+03  0.17291348981E+03  0.38437769662E+03  0.17300000000E+03 0.  1.
</event>
<event>
 6   0  0.4500850E-05  0.2022314E+03  0.7546771E-02  0.1152186E+00
       21   -1    0    0  502  503  0.00000000000E+00  0.00000000000E+00  0.12322634546E+04  0.12322634546E+04  0.00000000000E+00 0. -1.
       21   -1    0    0  501  504  0.00000000000E+00  0.00000000000E+00 -0.40391957931E+03  0.40391957931E+03  0.00000000000E+00 0. -1.
        6    1    1    2  501    0  0.82041685066E+02 -0.99850856120E+01  0.12922981678E+02  0.19216280462E+03  0.17300000000E+03 0. -1.
       -6    1    1    2    0  504  0.30631329006E+02  0.11798318016E+03 -0.11027205573E+02  0.21191722058E+03  0.17300000000E+03 0. -1.
        6    1    1    2  502    0  0.26452899161E+00 -0.11483756338E+02  0.95481016513E+03  0.97042433918E+03  0.17300000000E+03 0. -1.
       -6    1    1    2    0  503 -0.11293754306E+03 -0.96514338210E+02 -0.12836206594E+03  0.26167866953E+03  0.17300000000E+03 0. -1.
</event>
<event>
 6   0  0.4500850E-05  0.2300082E+03  0.7546771E-02  0.1130753E+00
       21   -1    0    0  502  503  0.00000000000E+00  0.00000000000E+00  0.26700227483E+04  0.26700227483E+04  0.00000000000E+00 0.  1.
       21   -1    0    0  501  504  0.00000000000E+00  0.00000000000E+00 -0.33902513183E+03  0.33902513183E+03  0.00000000000E+00 0.  1.
        6    1    1    2  501    0  0.27615919063E+02  0.44906692825E+02 -0.19521973193E+03  0.26611838302E+03  0.17300000000E+03 0.  1.
       -6    1    1    2    0  504 -0.13678168172E+03 -0.11072014121E+03  0.62996839269E+03  0.67657767766E+03  0.17300000000E+03 0.  1.
        6    1    1    2  502    0 -0.86020277418E+02  0.52247768103E+02  0.17608141004E+04  0.17721525367E+04  0.17300000000E+03 0.  1.
       -6    1    1    2    0  503  0.19518604007E+03  0.13565680280E+02  0.13543485538E+03  0.29419928275E+03  0.17300000000E+03 0. -1.
</event>
<event>
 6   0  0.4500850E-05  0.2478789E+03  0.7546771E-02  0.1116775E+00
       21   -1    0    0  502  503  0.00000000000E+00  0.00000000000E+00  0.79838967980E+03  0.79838967980E+03  0.00000000000E+00 0. -1.
       21   -1    0    0  501  504  0.00000000000E+00  0.00000000000E+00 -0.66846325380E+03  0.66846325380E+03  0.00000000000E+00 0. -1.
        6    1    1    2  501    0  0.25386317362E+03  0.74948118504E+02 -0.48901789929E+02  0.31997518098E+03  0.17300000000E+03 0. -1.
       -6    1    1    2    0  504  0.86774793344E+02 -0.50470266685E+02 -0.22335141710E+03  0.29981989277E+03  0.17300000000E+03 0. -1.
        6    1    1    2  502    0 -0.27363181297E+03 -0.11254128503E+01 -0.76931599065E+02  0.33275081752E+03  0.17300000000E+03 0. -1.
       -6    1    1    2    0  503 -0.67006153987E+02 -0.23352438969E+02  0.47911123208E+03  0.51430704233E+03  0.17300000000E+03 0. -1.
</event>
<event>
 6   0  0.4500850E-05  0.2764906E+03  0.7546771E-02  0.1110083E+00
       21   -1    0    0  501  503  0.00000000000E+00  0.00000000000E+00  0.50705849176E+03  0.50705849176E+03  0.00000000000E+00 0. -1.
       21   -1    0    0  502  504  0.00000000000E+00  0.00000000000E+00 -0.74877021170E+03  0.74877021170E+03  0.00000000000E+00 0. -1.
        6    1    1    2  501    0 -0.17349949173E+03 -0.14893363015E+03 -0.27737587815E+03  0.39893568103E+03  0.17300000000E+03 0. -1.
       -6    1    1    2    0  503  0.26781419956E+02  0.61461778215E+02  0.14473828609E+03  0.23531461089E+03  0.17300000000E+03 0.  1.
        6    1    1    2  502    0  0.26238266924E+03 -0.52325148630E+02  0.53090744115E+02  0.32300187834E+03  0.17300000000E+03 0. -1.
       -6    1    1    2    0  504 -0.11566459747E+03  0.13979700057E+03 -0.16216487199E+03  0.29857653321E+03  0.17300000000E+03 0.  1.
</event>
<event>
 6   0  0.4500850E-05  0.4704071E+03  0.7546771E-02  0.1042451E+00
       21   -1    0    0  501  503  0.00000000000E+00  0.00000000000E+00  0.34231742946E+03  0.34231742946E+03  0.00000000000E+00 0.  1.
       21   -1    0    0  502  504  0.00000000000E+00  0.00000000000E+00 -0.16395743837E+04  0.16395743837E+04  0.00000000000E+00 0. -1.
        6    1    1    2  501    0  0.14238704211E+03  0.18652804501E+02  0.79084520961E+01  0.22497453299E+03  0.17300000000E+03 0.  1.
       -6    1    1    2    0  504  0.31924879011E+03 -0.39344437974E+02 -0.17440886672E+03  0.40474093885E+03  0.17300000000E+03 0.  1.
        6    1    1    2  502    0 -0.34448864444E+03  0.96407122955E+02 -0.10378335946E+04  0.11113029873E+04  0.17300000000E+03 0. -1.
       -6    1    1    2    0  503 -0.11714718779E+03 -0.75715489482E+02 -0.92922944951E+02  0.24087335397E+03  0.17300000000E+03 0.  1.
</event>
<event>
 6   0  0.4500850E-05  0.2509006E+03  0.7546771E-02  0.1122296E+00
       21   -1    0    0  501  503  0.00000000000E+00  0.00000000000E+00  0.22906046714E+04  0.22906046714E+04  0.00000000000E+00 0.  1.
       21   -1    0    0  503  504  0.00000000000E+00  0.00000000000E+00 -0.25125797276E+03  0.25125797276E+03  0.00000000000E+00 0.  1.
        6    1    1    2  501    0  0.97154858979E+02 -0.88841731772E+02  0.12068109767E+04  0.12262355620E+04  0.17300000000E+03 0.  1.
       -6    1    1    2    0  502 -0.43004909965E+01  0.25193387883E+03  0.52917134441E+03  0.61109777063E+03  0.17300000000E+03 0.  1.
        6    1    1    2  502    0 -0.11440891711E+02 -0.39103940683E+02  0.41449525311E+03  0.45099371063E+03  0.17300000000E+03 0.  1.
       -6    1    1    2    0  504 -0.81413476272E+02 -0.12398820638E+03 -0.11113087557E+03  0.25353560094E+03  0.17300000000E+03 0.  1.
</event>
<event>
 6   0  0.4500850E-05  0.2986113E+03  0.7546771E-02  0.1089642E+00
       21   -1    0    0  501  503  0.00000000000E+00  0.00000000000E+00  0.47843312786E+03  0.47843312786E+03  0.00000000000E+00 0. -1.
       21   -1    0    0  502  504  0.00000000000E+00  0.00000000000E+00 -0.10809178758E+04  0.10809178758E+04  0.00000000000E+00 0. -1.
        6    1    1    2  501    0 -0.94762745517E+02  0.31495353387E+03 -0.24329371411E+03  0.44418074898E+03  0.17300000000E+03 0. -1.
       -6    1    1    2    0  504  0.78821488978E+02  0.14638994297E+03 -0.43213986153E+03  0.49428403014E+03  0.17300000000E+03 0. -1.
        6    1    1    2  502    0  0.53366632293E+02 -0.21041986678E+03  0.13331396556E+03  0.30793851853E+03  0.17300000000E+03 0. -1.
       -6    1    1    2    0  503 -0.37425375753E+02 -0.25092361005E+03 -0.60365137868E+02  0.31294770602E+03  0.17300000000E+03 0. -1.
</event>
<event>
 6   0  0.4500850E-05  0.2697098E+03  0.7546771E-02  0.1116938E+00
       21   -1    0    0  504  503  0.00000000000E+00  0.00000000000E+00  0.28329549072E+03  0.28329549072E+03  0.00000000000E+00 0. -1.
       21   -1    0    0  501  504  0.00000000000E+00  0.00000000000E+00 -0.18996814304E+04  0.18996814304E+04  0.00000000000E+00 0. -1.
        6    1    1    2  501    0  0.83960039721E+02  0.27578176999E+02 -0.90992210906E+03  0.93042844360E+03  0.17300000000E+03 0. -1.
       -6    1    1    2    0  502 -0.48907001795E+02 -0.26048010940E+02 -0.64522710198E+03  0.67031142525E+03  0.17300000000E+03 0. -1.
        6    1    1    2  502    0  0.12307624446E+03 -0.14676682711E+03 -0.14243804042E+03  0.29479799669E+03  0.17300000000E+03 0.  1.
       -6    1    1    2    0  503 -0.15812928239E+03  0.14523666105E+03  0.81201311746E+02  0.28743905561E+03  0.17300000000E+03 0. -1.
</event>
<event>
 6   0  0.4500850E-05  0.2334618E+03  0.7546771E-02  0.1131571E+00
       21   -1    0    0  504  503  0.00000000000E+00  0.00000000000E+00  0.18245698658E+04  0.18245698658E+04  0.00000000000E+00 0. -1.
       21   -1    0    0  501  504  0.00000000000E+00  0.00000000000E+00 -0.17111182428E+03  0.17111182428E+03  0.00000000000E+00 0. -1.
        6    1    1    2  501    0 -0.91272543684E+02  0.26266299798E+01  0.23007368541E+03  0.30199416738E+03  0.17300000000E+03 0. -1.
       -6    1    1    2    0  502  0.61684458084E+02  0.64904637437E+02  0.72924679435E+02  0.20800142596E+03  0.17300000000E+03 0. -1.
        6    1    1    2  502    0 -0.10351520491E+03 -0.12477057916E+03  0.11781324675E+04  0.12017521400E+04  0.17300000000E+03 0. -1.
       -6    1    1    2    0  503  0.13310329051E+03  0.57239311744E+02  0.17232720915E+03  0.28393395669E+03  0.17300000000E+03 0. -1.
</event>
<event>
 6   0  0.4500850E-05  0.2495104E+03  0.7546771E-02  0.1119336E+00
       21   -1    0    0  501  503  0.00000000000E+00  0.00000000000E+00  0.23910218486E+04  0.23910218486E+04  0.00000000000E+00 0.  1.
       21   -1    0    0  502  504  0.00000000000E+00  0.00000000000E+00 -0.13606377839E+03  0.13606377839E+03  0.00000000000E+00 0.  1.
        6    1    1    2  501    0 -0.22242636281E+02  0.13140467243E+03  0.10808694674E+04  0.11027101742E+04  0.17300000000E+03 0. -1.
       -6    1    1    2    0  503  0.71218262179E+02 -0.25071439766E+03  0.36365527760E+03  0.47969147480E+03  0.17300000000E+03 0.  1.
        6    1    1    2  502    0  0.70306787820E+02 -0.16547535158E+02  0.15547752376E+03  0.24355518005E+03  0.17300000000E+03 0. -1.
       -6    1    1    2    0  504 -0.11928241372E+03  0.13585726039E+03  0.65495580144E+03  0.70112879791E+03  0.17300000000E+03 0.  1.
</event>
<event>
 6   0  0.4500850E-05  0.2174520E+03  0.7546771E-02  0.1143879E+00
       21   -1    0    0  504  503  0.00000000000E+00  0.00000000000E+00  0.13436434616E+04  0.13436434616E+04  0.00000000000E+00 0.  1.
       21   -1    0    0  501  504  0.00000000000E+00  0.00000000000E+00 -0.90131707163E+03  0.90131707163E+03  0.00000000000E+00 0. -1.
        6    1    1    2  501    0  0.21827788541E+02  0.12370550981E+03 -0.74023275118E+03  0.77048882629E+03  0.17300000000E+03 0. -1.
       -6    1    1    2    0  502  0.11063609961E+03 -0.88960808338E+02  0.83148475399E+02  0.23874053053E+03  0.17300000000E+03 0.  1.
        6    1    1    2  502    0 -0.16505533696E+03 -0.37360702602E+02  0.18525257495E+03  0.30477303504E+03  0.17300000000E+03 0.  1.
       -6    1    1    2    0  503  0.32591448807E+02  0.26160011330E+01  0.91415809080E+03  0.93095814137E+03  0.17300000000E+03 0.  1.
</event>
<event>
 6   0  0.4500850E-05  0.3682773E+03  0.7546771E-02  0.1076776E+00
       21   -1    0    0  501  503  0.00000000000E+00  0.00000000000E+00  0.15268109739E+04  0.15268109739E+04  0.00000000000E+00 0. -1.
       21   -1    0    0  503  504  0.00000000000E+00  0.00000000000E+00 -0.24599507107E+03  0.24599507107E+03  0.00000000000E+00 0.  1.
        6    1    1    2  501    0  0.90017107687E+02  0.58523940042E+02  0.94487058984E+03  0.96655965298E+03  0.17300000000E+03 0. -1.
       -6    1    1    2    0  504 -0.26732252643E+02 -0.80317095010E+02 -0.28838989978E+02  0.19474633867E+03  0.17300000000E+03 0.  1.
        6    1    1    2  502    0  0.19334551578E+02 -0.47893085505E+02 -0.14201917658E+02  0.18110291822E+03  0.17300000000E+03 0.  1.
       -6    1    1    2    0  502 -0.82619406622E+02  0.69686240473E+02  0.37898622059E+03  0.43039713505E+03  0.17300000000E+03 0. -1.
</event>
<event>
 6   0  0.4500850E-05  0.2394063E+03  0.7546771E-02  0.1122816E+00
       21   -1    0    0  502  503  0.00000000000E+00  0.00000000000E+00  0.14398124257E+04  0.14398124257E+04  0.00000000000E+00 0. -1.
       21   -1    0    0  501  504  0.00000000000E+00  0.00000000000E+00 -0.37966241509E+03  0.37966241509E+03  0.00000000000E+00 0. -1.
        6    1    1    2  501    0 -0.80996633366E+02 -0.50690445453E+02 -0.17671981948E+03  0.26512048294E+03  0.17300000000E+03 0. -1.
       -6    1    1    2    0  503 -0.10721325425E+03  0.14183035848E+03  0.60117508674E+02  0.25525212501E+03  0.17300000000E+03 0. -1.
        6    1    1    2  502    0  0.43555165046E+01  0.12847858274E+03  0.44245358257E+03  0.49215839877E+03  0.17300000000E+03 0. -1.
       -6    1    1    2    0  504  0.18385437111E+03 -0.21961849577E+03  0.73429873886E+03  0.80694383407E+03  0.17300000000E+03 0. -1.
</event>
<event>
 6   0  0.4500850E-05  0.4501663E+03  0.7546771E-02  0.1049846E+00
       21   -1    0    0  501  503  0.00000000000E+00  0.00000000000E+00  0.99096202316E+03  0.99096202316E+03  0.00000000000E+00 0.  1.
       21   -1    0    0  502  504  0.00000000000E+00  0.00000000000E+00 -0.26593828038E+03  0.26593828038E+03  0.00000000000E+00 0.  1.
        6    1    1    2  501    0 -0.13731402876E+03  0.82484807039E+02  0.16018523345E+03  0.28503893577E+03  0.17300000000E+03 0.  1.
       -6    1    1    2    0  504 -0.18159771607E+03 -0.14028516377E+03  0.11524156670E+03  0.30962441175E+03  0.17300000000E+03 0.  1.
        6    1    1    2  502    0  0.15929303107E+03  0.35661836214E+02  0.29840034049E+03  0.38159900355E+03  0.17300000000E+03 0.  1.
       -6    1    1    2    0  503  0.15961871376E+03  0.22138520515E+02  0.15119660213E+03  0.28063795247E+03  0.17300000000E+03 0.  1.
</event>
<event>
 6   0  0.4500850E-05  0.3424241E+03  0.7546771E-02  0.1073402E+00
       21   -1    0    0  501  503  0.00000000000E+00  0.00000000000E+00  0.67367696522E+03  0.67367696522E+03  0.00000000000E+00 0.  1.
       21   -1    0    0  502  504  0.00000000000E+00  0.00000000000E+00 -0.45029598525E+03  0.45029598525E+03  0.00000000000E+00 0.  1.
        6    1    1    2  501    0 -0.14869948108E+03  0.44198556777E+02 -0.38962851755E+02  0.23561016937E+03  0.17300000000E+03 0.  1.
       -6    1    1    2    0  504 -0.17048281226E+03  0.90032319872E+02 -0.65065154548E+02  0.26708178941E+03  0.17300000000E+03 0.  1.
        6    1    1    2  502    0  0.14832161000E+03 -0.24945702016E+02  0.46297845543E+02  0.23386765177E+03  0.17300000000E+03 0.  1.
       -6    1    1    2    0  503  0.17086068334E+03 -0.10928517463E+03  0.28111114073E+03  0.38741333992E+03  0.17300000000E+03 0.  1.
</event>
<event>
 6   0  0.4500850E-05  0.4892366E+03  0.7546771E-02  0.1016627E+00
        2   -1    0    0  503    0  0.00000000000E+00  0.00000000000E+00  0.19614006062E+04  0.19614006062E+04  0.00000000000E+00 0.  1.
       -2   -1    0    0    0  501  0.00000000000E+00  0.00000000000E+00 -0.28163935162E+03  0.28163935162E+03  0.00000000000E+00 0. -1.
        6    1    1    2  502    0 -0.22770490147E+03  0.96302641668E+02  0.30799940508E+03  0.43118018795E+03  0.17300000000E+03 0. -1.
       -6    1    1    2    0  501  0.14729808904E+03 -0.17689653734E+03  0.12958347767E+04  0.13274433624E+04  0.17300000000E+03 0.  1.
        6    1    1    2  503    0 -0.12586964013E+02 -0.10667237241E+03  0.61239501536E+02  0.21264219536E+03  0.17300000000E+03 0. -1.
       -6    1    1    2    0  502  0.92993776445E+02  0.18726626809E+03  0.14687571302E+02  0.27177421211E+03  0.17300000000E+03 0. -1.
</event>
<event>
 6   0  0.4500850E-05  0.2557170E+03  0.7546771E-02  0.1110497E+00
       21   -1    0    0  502  503  0.00000000000E+00  0.00000000000E+00  0.48901631238E+03  0.48901631238E+03  0.00000000000E+00 0.  1.
       21   -1    0    0  503  504  0.00000000000E+00  0.00000000000E+00 -0.11142781077E+04  0.11142781077E+04  0.00000000000E+00 0. -1.
        6    1    1    2  501    0  0.70721576326E+02 -0.20072481849E+03 -0.67878794172E+03  0.73210249552E+03  0.17300000000E+03 0. -1.
       -6    1    1    2    0  504  0.17598397748E+03  0.59618267460E+02 -0.13873920280E+03  0.28931343650E+03  0.17300000000E+03 0.  1.
        6    1    1    2  502    0 -0.11885087924E+03  0.18672143955E+03 -0.12774196295E+02  0.28121630033E+03  0.17300000000E+03 0. -1.
       -6    1    1    2    0  501 -0.12785467456E+03 -0.45614888514E+02  0.20503954555E+03  0.30066218768E+03  0.17300000000E+03 0.  1.
</event>
<event>
 6   0  0.4500850E-05  0.6222236E+03  0.7546771E-02  0.9861999E-01
       21   -1    0    0  501  503  0.00000000000E+00  0.00000000000E+00  0.76960340931E+03  0.76960340931E+03  0.00000000000E+00 0. -1.
       21   -1    0    0  503  504  0.00000000000E+00  0.00000000000E+00 -0.62230445351E+03  0.62230445351E+03  0.00000000000E+00 0. -1.
        6    1    1    2  501    0  0.20778355883E+03  0.21374428602E+02  0.13166995425E+03  0.30149104526E+03  0.17300000000E+03 0. -1.
       -6    1    1    2    0  502  0.17125759030E+03  0.24372972207E+03  0.24987775537E+03  0.42555990446E+03  0.17300000000E+03 0. -1.
        6    1    1    2  502    0 -0.30688926847E+03 -0.87771346003E+02 -0.11714343827E+03  0.38149235564E+03  0.17300000000E+03 0. -1.
       -6    1    1    2    0  504 -0.72151880661E+02 -0.17733280466E+03 -0.11710531556E+03  0.28336455746E+03  0.17300000000E+03 0.  1.
</event>
<event>
 6   0  0.4500850E-05  0.2655737E+03  0.7546771E-02  0.1111408E+00
       21   -1    0    0  502  503  0.00000000000E+00  0.00000000000E+00  0.49727932119E+03  0.49727932119E+03  0.00000000000E+00 0. -1.
       21   -1    0    0  501  504  0.00000000000E+00  0.00000000000E+00 -0.26463749594E+04  0.26463749594E+04  0.00000000000E+00 0.  1.
        6    1    1    2  501    0 -0.73119080805E+02  0.13679142933E+03  0.88827138048E+02  0.24875199611E+03  0.17300000000E+03 0.  1.
       -6    1    1    2    0  504  0.16570847370E+03  0.36255469687E+02 -0.24129543323E+03  0.34194479589E+03  0.17300000000E+03 0. -1.
        6    1    1    2  502    0 -0.16036694949E+03 -0.27377682532E+03 -0.22177926046E+04  0.22470434677E+04  0.17300000000E+03 0.  1.
       -6    1    1    2    0  503  0.67777556599E+02  0.10072992630E+03  0.22116526161E+03  0.30591402088E+03  0.17300000000E+03 0. -1.
</event>
<event>
 6   0  0.4500850E-05  0.6593863E+03  0.7546771E-02  0.9794405E-01
       21   -1    0    0  502  503  0.00000000000E+00  0.00000000000E+00  0.11636967674E+04  0.11636967674E+04  0.00000000000E+00 0.  1.
       21   -1    0    0  501  504  0.00000000000E+00  0.00000000000E+00 -0.41456294070E+03  0.41456294070E+03  0.00000000000E+00 0.  1.
        6    1    1    2  501    0 -0.78919914257E+02 -0.24314238745E+03  0.40687686855E+02  0.31133753597E+03  0.17300000000E+03 0.  1.
       -6    1    1    2    0  503  0.13929550291E+03 -0.25677313269E+03  0.65120036878E+02  0.34569538326E+03  0.17300000000E+03 0.  1.
        6    1    1    2  502    0  0.86876716300E+02  0.16405293812E+03  0.23802932898E+03  0.34791937542E+03  0.17300000000E+03 0.  1.
       -6    1    1    2    0  504 -0.14725230495E+03  0.33586258203E+03  0.40529677399E+03  0.57330741346E+03  0.17300000000E+03 0.  1.
</event>
<event>
 6   0  0.4500850E-05  0.3587780E+03  0.7546771E-02  0.1074786E+00
       21   -1    0    0  502  503  0.00000000000E+00  0.00000000000E+00  0.38209967040E+03  0.38209967040E+03  0.00000000000E+00 0. -1.
       21   -1    0    0  501  504  0.00000000000E+00  0.00000000000E+00 -0.20306656954E+04  0.20306656954E+04  0.00000000000E+00 0.  1.
        6    1    1    2  501    0  0.39596671621E+02  0.29812140379E+03 -0.12762044431E+04  0.13225244982E+04  0.17300000000E+03 0.  1.
       -6    1    1    2    0  503  0.88155211445E+02 -0.43000678089E+03 -0.13545430814E+03  0.49087069836E+03  0.17300000000E+03 0. -1.
        6    1    1    2  502    0 -0.20470433065E+03 -0.29467093453E+01 -0.25004207005E+03  0.36655502026E+03  0.17300000000E+03 0. -1.
       -6    1    1    2    0  504  0.76952447584E+02  0.13483208645E+03  0.13134796273E+02  0.23281514899E+03  0.17300000000E+03 0.  1.
</event>
<event>
 6   0  0.4500850E-05  0.7162778E+03  0.7546771E-02  0.9814170E-01
       21   -1    0    0  504  503  0.00000000000E+00  0.00000000000E+00  0.13630371178E+04  0.13630371178E+04  0.00000000000E+00 0. -1.
       21   -1    0    0  501  504  0.00000000000E+00  0.00000000000E+00 -0.11118308463E+04  0.11118308463E+04  0.00000000000E+00 0.  1.
        6    1    1    2  501    0  0.20280036227E+03 -0.57646369571E+02 -0.24836200634E+03  0.36886823806E+03  0.17300000000E+03 0.  1.
       -6    1    1    2    0  503  0.50394570493E+03 -0.20438309591E+03 -0.17243025906E+03  0.59615007980E+03  0.17300000000E+03 0.  1.
        6    1    1    2  502    0 -0.62460957667E+03 -0.13357419789E+03  0.81299351355E+03  0.10482684020E+04  0.17300000000E+03 0. -1.
       -6    1    1    2    0  502 -0.82136490526E+02  0.39560366336E+03 -0.14099497663E+03  0.46158124418E+03  0.17300000000E+03 0.  1.
</event>
<event>
 6   0  0.4500850E-05  0.2489729E+03  0.7546771E-02  0.1115420E+00
       21   -1    0    0  504  503  0.00000000000E+00  0.00000000000E+00  0.11056987604E+04  0.11056987604E+04  0.00000000000E+00 0. -1.
       21   -1    0    0  502  504  0.00000000000E+00  0.00000000000E+00 -0.98598318992E+03  0.98598318992E+03  0.00000000000E+00 0. -1.
        6    1    1    2  501    0  0.14239551738E+03 -0.85799059340E+02  0.84075018259E+03  0.87431563608E+03  0.17300000000E+03 0. -1.
       -6    1    1    2    0  503 -0.15382057901E+03  0.83255797380E+02 -0.47773441927E+02  0.25060646456E+03  0.17300000000E+03 0. -1.
        6    1    1    2  502    0  0.12057827810E+03  0.14273518259E+03 -0.57852444672E+01  0.25470556051E+03  0.17300000000E+03 0. -1.
       -6    1    1    2    0  501 -0.10915321648E+03 -0.14019192063E+03 -0.66747592573E+03  0.71205428916E+03  0.17300000000E+03 0. -1.
</event>
<event>
 6   0  0.4500850E-05  0.4028629E+03  0.7546771E-02  0.1051381E+00
       21   -1    0    0  502  503  0.00000000000E+00  0.00000000000E+00  0.26034866377E+04  0.26034866377E+04  0.00000000000E+00 0.  1.
       21   -1    0    0  501  504  0.00000000000E+00  0.00000000000E+00 -0.58941442441E+03  0.58941442441E+03  0.00000000000E+00 0.  1.
        6    1    1    2  501    0  0.27736756055E+03 -0.12986383448E+03 -0.22397176758E+03  0.41700087748E+03  0.17300000000E+03 0.  1.
       -6    1    1    2    0  503  0.85211722812E+02  0.44812874047E+03  0.12341400433E+03  0.50322998937E+03  0.17300000000E+03 0. -1.
        6    1    1    2  502    0 -0.15874128573E+03 -0.34999352555E+03  0.18416537894E+04  0.18892622750E+04  0.17300000000E+03 0.  1.
       -6    1    1    2    0  504 -0.20383799763E+03  0.31728619561E+02  0.27297618717E+03  0.38340792029E+03  0.17300000000E+03 0.  1.
</event>
<event>
 6   0  0.4500850E-05  0.2099212E+03  0.7546771E-02  0.1141888E+00
       21   -1    0    0  501  503  0.00000000000E+00  0.00000000000E+00  0.17350523073E+04  0.17350523073E+04  0.00000000000E+00 0.  1.
       21   -1    0    0  502  504  0.00000000000E+00  0.00000000000E+00 -0.22153600890E+03  0.22153600890E+03  0.00000000000E+00 0.  1.
        6    1    1    2  501    0 -0.17349819858E+03  0.18987798745E+02  0.46944423543E+03  0.52987644937E+03  0.17300000000E+03 0.  1.
       -6    1    1    2    0  503  0.14303699128E+03  0.44615376255E+02  0.31986700650E+03  0.39331159978E+03  0.17300000000E+03 0.  1.
        6    1    1    2  502    0 -0.54842323668E+02 -0.75094627344E+02 -0.75697334880E+02  0.21048983355E+03  0.17300000000E+03 0.  1.
       -6    1    1    2    0  504  0.85303530969E+02  0.11491452344E+02  0.79990239137E+03  0.82291043351E+03  0.17300000000E+03 0.  1.
</event>
<event>
 6   0  0.4500850E-05  0.2195875E+03  0.7546771E-02  0.1143472E+00
       21   -1    0    0  502  503  0.00000000000E+00  0.00000000000E+00  0.84224703897E+03  0.84224703897E+03  0.00000000000E+00 0. -1.
       21   -1    0    0  501  504  0.00000000000E+00  0.00000000000E+00 -0.25828355407E+03  0.25828355407E+03  0.00000000000E+00 0.  1.
        6    1    1    2  501    0 -0.23999216685E+02 -0.16752125615E+02 -0.41582663925E+02  0.18031836860E+03  0.17300000000E+03 0.  1.
       -6    1    1    2    0  504 -0.64455100007E+01  0.35877657121E+02  0.12221511001E+03  0.21492855556E+03  0.17300000000E+03 0.  1.
        6    1    1    2  502    0  0.12536634439E+03  0.62521968480E+02  0.42133863816E+03  0.47653013006E+03  0.17300000000E+03 0. -1.
       -6    1    1    2    0  503 -0.94921617701E+02 -0.81647499986E+02  0.81992400645E+02  0.22875353882E+03  0.17300000000E+03 0.  1.
</event>
<event>
 6   0  0.4500850E-05  0.5451243E+03  0.7546771E-02  0.1007068E+00
        1   -1    0    0  503    0  0.00000000000E+00  0.00000000000E+00  0.68334444576E+03  0.68334444576E+03  0.00000000000E+00 0. -1.
       -1   -1    0    0    0  501  0.00000000000E+00  0.00000000000E+00 -0.38389192481E+03  0.38389192481E+03  0.00000000000E+00 0.  1.
        6    1    1    2  502    0  0.19646133942E+03  0.18962301876E+03 -0.95647559069E+01  0.32337970203E+03  0.17300000000E+03 0.  1.
       -6    1    1    2    0  501  0.80181249674E+02 -0.60007386506E+02  0.11894883540E+03  0.23261071488E+03  0.17300000000E+03 0. -1.
        6    1    1    2  503    0 -0.13347135509E+03 -0.70145372908E+02  0.15348353634E+03  0.27608182102E+03  0.17300000000E+03 0. -1.
       -6    1    1    2    0  502 -0.14317123401E+03 -0.59470259348E+02  0.36584905127E+02  0.23516413264E+03  0.17300000000E+03 0. -1.
</event>
<event>
 6   0  0.4500850E-05  0.2813350E+03  0.7546771E-02  0.1110319E+00
       21   -1    0    0  501  503  0.00000000000E+00  0.00000000000E+00  0.16718520492E+04  0.16718520492E+04  0.00000000000E+00 0. -1.
       21   -1    0    0  502  504  0.00000000000E+00  0.00000000000E+00 -0.44621752004E+03  0.44621752004E+03  0.00000000000E+00 0. -1.
        6    1    1    2  501    0  0.63977071439E+02 -0.42301918610E+02 -0.33226269631E+03  0.38237418499E+03  0.17300000000E+03 0. -1.
       -6    1    1    2    0  504 -0.16675149882E+02  0.88792302905E+02  0.33055494572E+03  0.38387199144E+03  0.17300000000E+03 0.  1.
        6    1    1    2  502    0 -0.23213723358E+03 -0.97868255301E+02  0.73014669526E+03  0.79152327016E+03  0.17300000000E+03 0. -1.
       -6    1    1    2    0  503  0.18483531202E+03  0.51377871006E+02  0.49719558454E+03  0.56030012269E+03  0.17300000000E+03 0.  1.
</event>
<event>
 6   0  0.4500850E-05  0.4174694E+03  0.7546771E-02  0.1057594E+00
       21   -1    0    0  502  503  0.00000000000E+00  0.00000000000E+00  0.53081565800E+03  0.53081565800E+03  0.00000000000E+00 0.  1.
       21   -1    0    0  501  504  0.00000000000E+00  0.00000000000E+00 -0.58081763722E+03  0.58081763722E+03  0.00000000000E+00 0.  1.
        6    1    1    2  501    0  0.15159656040E+03 -0.58579137051E+02  0.19972299261E+03  0.31021171190E+03  0.17300000000E+03 0.  1.
       -6    1    1    2    0  504  0.70270558493E+02 -0.79140056967E+02 -0.19268019199E+03  0.27974230354E+03  0.17300000000E+03 0.  1.
        6    1    1    2  502    0  0.75374569332E+01 -0.37461296101E+02 -0.53758547560E+02  0.18514627568E+03  0.17300000000E+03 0.  1.
       -6    1    1    2    0  503 -0.22940457582E+03  0.17518049012E+03 -0.32862322877E+01  0.33653300410E+03  0.17300000000E+03 0.  1.
</event>
<event>
 6   0  0.4500850E-05  0.7111281E+03  0.7546771E-02  0.9704660E-01
       -3   -1    0    0    0  501  0.00000000000E+00  0.00000000000E+00  0.16360728710E+04  0.16360728710E+04  0.00000000000E+00 0.  1.
        3   -1    0    0  503    0  0.00000000000E+00  0.00000000000E+00 -0.35792268606E+03  0.35792268606E+03  0.00000000000E+00 0. -1.
        6    1    1    2  502    0  0.31247160704E+03 -0.17212180123E+03  0.32227126611E+03  0.51093266545E+03  0.17300000000E+03 0. -1.
       -6    1    1    2    0  502 -0.36562145892E+03  0.15424232007E+03  0.64222372405E+02  0.43763370258E+03  0.17300000000E+03 0.  1.
        6    1    1    2  503    0  0.91800477873E+02  0.14072534324E+03  0.17757058024E+03  0.29948499283E+03  0.17300000000E+03 0.  1.
       -6    1    1    2    0  501 -0.38650625998E+02 -0.12284586207E+03  0.71408596618E+03  0.74594419618E+03  0.17300000000E+03 0.  1.
</event>
<event>
 6   0  0.4500850E-05  0.2282056E+03  0.7546771E-02  0.1130897E+00
       21   -1    0    0  501  503  0.00000000000E+00  0.00000000000E+00  0.98564996688E+03  0.98564996688E+03  0.00000000000E+00 0. -1.
       21   -1    0    0  502  504  0.00000000000E+00  0.00000000000E+00 -0.39101571378E+03  0.39101571378E+03  0.00000000000E+00 0. -1.
        6    1    1    2  501    0 -0.16200783745E+02  0.14787890183E+03 -0.49151474740E+02  0.23339987676E+03  0.17300000000E+03 0. -1.
       -6    1    1    2    0  504 -0.19041360345E+03 -0.38137779311E+02 -0.61414630818E+02  0.26723133699E+03  0.17300000000E+03 0. -1.
        6    1    1    2  502    0  0.12079569911E+03 -0.48711943017E+02  0.10128821822E+03  0.23906642898E+03  0.17300000000E+03 0.  1.
       -6    1    1    2    0  503  0.85818688083E+02 -0.61029179503E+02  0.60391214045E+03  0.63696803794E+03  0.17300000000E+03 0. -1.
</event>
<event>
 6   0  0.4500850E-05  0.6022525E+03  0.7546771E-02  0.1005096E+00
       21   -1    0    0  501  503  0.00000000000E+00  0.00000000000E+00  0.26796115635E+04  0.26796115635E+04  0.00000000000E+00 0.  1.
       21   -1    0    0  503  504  0.00000000000E+00  0.00000000000E+00 -0.17809900391E+04  0.17809900391E+04  0.00000000000E+00 0.  1.
        6    1    1    2  501    0  0.32202762930E+03 -0.55143972967E+03  0.21561117012E+04  0.22553346176E+04  0.17300000000E+03 0.  1.
       -6    1    1    2    0  502  0.36290076956E+02  0.42770100691E+03  0.13926573771E+03  0.48328983716E+03  0.17300000000E+03 0. -1.
        6    1    1    2  502    0 -0.43343754300E+03 -0.19949518695E+03 -0.11916262443E+04  0.12952098437E+04  0.17300000000E+03 0.  1.
       -6    1    1    2    0  504  0.75119836746E+02  0.32323390971E+03 -0.20512967016E+03  0.42676730409E+03  0.17300000000E+03 0. -1.
</event>
<event>
 6   0  0.4500850E-05  0.3694600E+03  0.7546771E-02  0.1077602E+00
       21   -1    0    0  502  503  0.00000000000E+00  0.00000000000E+00  0.29951851813E+04  0.29951851813E+04  0.00000000000E+00 0. -1.
       21   -1    0    0  501  504  0.00000000000E+00  0.00000000000E+00 -0.26633094875E+03  0.26633094875E+03  0.00000000000E+00 0.  1.
        6    1    1    2  501    0  0.20158279955E+02  0.92477284693E+02  0.17453370838E+03  0.26334278004E+03  0.17300000000E+03 0. -1.
       -6    1    1    2    0  503  0.73535203391E+02  0.29901423495E+03  0.19572047519E+04  0.19888178347E+04  0.17300000000E+03 0. -1.
        6    1    1    2  502    0 -0.30113549793E+03 -0.41551756604E+03  0.42199240592E+03  0.68654499230E+03  0.17300000000E+03 0.  1.
       -6    1    1    2    0  504  0.20744201458E+03  0.24026046400E+02  0.17512336638E+03  0.32281052302E+03  0.17300000000E+03 0.  1.
</event>
<event>
 6   0  0.4500850E-05  0.2964627E+03  0.7546771E-02  0.1089987E+00
       21   -1    0    0  502  503  0.00000000000E+00  0.00000000000E+00  0.11421518147E+04  0.11421518147E+04  0.00000000000E+00 0. -1.
       21   -1    0    0  501  504  0.00000000000E+00  0.00000000000E+00 -0.77945406916E+03  0.77945406916E+03  0.00000000000E+00 0.  1.
        6    1    1    2  501    0 -0.74933958021E+02  0.14242636221E+02  0.16340949796E+03  0.24989920923E+03  0.17300000000E+03 0. -1.
       -6    1    1    2    0  503  0.61974589199E+02 -0.39604487574E+03  0.65668112332E+03  0.78857560895E+03  0.17300000000E+03 0. -1.
        6    1    1    2  502    0 -0.83668944224E+02 -0.59313277956E+02  0.21858429680E+02  0.20230014364E+03  0.17300000000E+03 0. -1.
       -6    1    1    2    0  504  0.96628313047E+02  0.44111551748E+03 -0.47925130542E+03  0.68083092203E+03  0.17300000000E+03 0.  1.
</event>
<event>
 6   0  0.4500850E-05  0.3879701E+03  0.7546771E-02  0.1062508E+00
       21   -1    0    0  502  503  0.00000000000E+00  0.00000000000E+00  0.13516316982E+04  0.13516316982E+04  0.00000000000E+00 0. -1.
       21   -1    0    0  501  504  0.00000000000E+00  0.00000000000E+00 -0.12747436498E+04  0.12747436498E+04  0.00000000000E+00 0. -1.
        6    1    1    2  501    0  0.22431474649E+03 -0.16429442911E+03 -0.83269241355E+03  0.89477115539E+03  0.17300000000E+03 0. -1.
       -6    1    1    2    0  504 -0.40826555689E+03  0.27498239246E+03  0.24308826224E+03  0.57560141100E+03  0.17300000000E+03 0. -1.
        6    1    1    2  502    0 -0.11234306420E+03  0.56715419230E+02  0.73731686536E+03  0.76772570805E+03  0.17300000000E+03 0. -1.
       -6    1    1    2    0  503  0.29629387461E+03 -0.16740338258E+03 -0.70824665665E+02  0.38827707362E+03  0.17300000000E+03 0. -1.
</event>
<event>
 6   0  0.4500850E-05  0.2695745E+03  0.7546771E-02  0.1101903E+00
       21   -1    0    0  502  503  0.00000000000E+00  0.00000000000E+00  0.30580600133E+03  0.30580600133E+03  0.00000000000E+00 0.  1.
       21   -1    0    0  501  504  0.00000000000E+00  0.00000000000E+00 -0.13789758421E+04  0.13789758421E+04  0.00000000000E+00 0.  1.
        6    1    1    2  501    0 -0.61474145523E+02 -0.11919676603E+02 -0.48118605296E+03  0.51516033118E+03  0.17300000000E+03 0.  1.
       -6    1    1    2    0  503 -0.30960465620E+03  0.11171895058E+03 -0.39445924073E+03  0.54209156021E+03  0.17300000000E+03 0.  1.
        6    1    1    2  502    0  0.51929437525E+02  0.57138287480E+02 -0.12073973097E+03  0.22465202650E+03  0.17300000000E+03 0. -1.
       -6    1    1    2    0  504  0.31914936420E+03 -0.15693756146E+03 -0.76784816073E+02  0.40287792549E+03  0.17300000000E+03 0.  1.
</event>
<event>
 6   0  0.4500850E-05  0.2240962E+03  0.7546771E-02  0.1132097E+00
       21   -1    0    0  502  503  0.00000000000E+00  0.00000000000E+00  0.32916714998E+03  0.32916714998E+03  0.00000000000E+00 0.  1.
       21   -1    0    0  501  504  0.00000000000E+00  0.00000000000E+00 -0.12800330626E+04  0.12800330626E+04  0.00000000000E+00 0.  1.
        6    1    1    2  501    0 -0.83138990842E+02 -0.16066804380E+03 -0.39734853880E+03  0.46961811441E+03  0.17300000000E+03 0.  1.
       -6    1    1    2    0  503 -0.60719893105E+02  0.11442038927E+03 -0.58848037107E+03  0.62691074168E+03  0.17300000000E+03 0. -1.
        6    1    1    2  502    0  0.14677222256E+03  0.15727782562E+03  0.10519543614E+03  0.29542085155E+03  0.17300000000E+03 0.  1.
       -6    1    1    2    0  504 -0.29133386125E+01 -0.11103017108E+03 -0.70232438919E+02  0.21725050497E+03  0.17300000000E+03 0. -1.
</event>
<event>
 6   0  0.4500850E-05  0.2410160E+03  0.7546771E-02  0.1119190E+00
       21   -1    0    0  504  503  0.00000000000E+00  0.00000000000E+00  0.45845145631E+03  0.45845145631E+03  0.00000000000E+00 0. -1.
       21   -1    0    0  502  504  0.00000000000E+00  0.00000000000E+00 -0.15129313631E+04  0.15129313631E+04  0.00000000000E+00 0. -1.
        6    1    1    2  501    0 -0.24760559218E+03  0.16030584834E+03 -0.70667857068E+02  0.34918396342E+03  0.17300000000E+03 0. -1.
       -6    1    1    2    0  503  0.13089674456E+03 -0.15184481370E+03  0.69898680373E+02  0.27387155877E+03  0.17300000000E+03 0. -1.
        6    1    1    2  502    0  0.49833214740E+02 -0.83805299795E+02 -0.11199796550E+04  0.11374489462E+04  0.17300000000E+03 0. -1.
       -6    1    1    2    0  501  0.66875632875E+02  0.75344265154E+02  0.66268924841E+02  0.21087835110E+03  0.17300000000E+03 0. -1.
</event>
<event>
 6   0  0.4500850E-05  0.3871747E+03  0.7546771E-02  0.1056135E+00
       21   -1    0    0  502  503  0.00000000000E+00  0.00000000000E+00  0.21270116237E+04  0.21270116237E+04  0.00000000000E+00 0. -1.
       21   -1    0    0  501  504  0.00000000000E+00  0.00000000000E+00 -0.75826135886E+03  0.75826135886E+03  0.00000000000E+00 0. -1.
        6    1    1    2  501    0  0.29108566149E+03  0.11144828958E+03  0.15071568450E+04  0.15487421797E+04  0.17300000000E+03 0. -1.
       -6    1    1    2    0  504  0.21506316814E+03  0.10803291548E+03 -0.40240387934E+03  0.49978111131E+03  0.17300000000E+03 0. -1.
        6    1    1    2  502    0 -0.40135218905E+03 -0.33909210922E+03  0.13802879983E+03  0.57012979906E+03  0.17300000000E+03 0. -1.
       -6    1    1    2    0  503 -0.10479664058E+03  0.11961090417E+03  0.12596849932E+03  0.26661989253E+03  0.17300000000E+03 0. -1.
</event>
<event>
 6   0  0.4500850E-05  0.2871513E+03  0.7546771E-02  0.1097308E+00
       21   -1    0    0  502  503  0.00000000000E+00  0.00000000000E+00  0.17470422353E+04  0.17470422353E+04  0.00000000000E+00 0. -1.
       21   -1    0    0  501  504  0.00000000000E+00  0.00000000000E+00 -0.17250896698E+03  0.17250896698E+03  0.00000000000E+00 0. -1.
        6    1    1    2  501    0  0.14021839760E+03 -0.14290804322E+03  0.50400440348E+03  0.56923927005E+03  0.17300000000E+03 0.  1.
       -6    1    1    2    0  503 -0.14407750421E+03 -0.10601001691E+03  0.43428933230E+03  0.50053239161E+03  0.17300000000E+03 0. -1.
        6    1    1    2  502    0  0.17549256040E+03  0.69427250622E+02  0.34619256351E+03  0.43057644259E+03  0.17300000000E+03 0. -1.
       -6    1    1    2    0  504 -0.17163345379E+03  0.17949080951E+03  0.29004696906E+03  0.41920309806E+03  0.17300000000E+03 0.  1.
</event>
<event>
 6   0  0.4500850E-05  0.1816519E+03  0.7546771E-02  0.1166897E+00
       21   -1    0    0  501  503  0.00000000000E+00  0.00000000000E+00  0.76814319441E+03  0.76814319441E+03  0.00000000000E+00 0. -1.
       21   -1    0    0  502  504  0.00000000000E+00  0.00000000000E+00 -0.35501292790E+03  0.35501292790E+03  0.00000000000E+00 0. -1.
        6    1    1    2  501    0  0.21264057047E+02  0.36966625582E+02 -0.14451060883E+03  0.22941448863E+03  0.17300000000E+03 0. -1.
       -6    1    1    2    0  504 -0.30892898689E+02 -0.83349930368E+02 -0.34841378255E+02  0.19759682113E+03  0.17300000000E+03 0.  1.
        6    1    1    2  502    0  0.57330308385E+02  0.22711048397E+02  0.27512259213E+03  0.33079298161E+03  0.17300000000E+03 0. -1.
       -6    1    1    2    0  503 -0.47701466743E+02  0.23672256389E+02  0.31735966146E+03  0.36535183094E+03  0.17300000000E+03 0.  1.
</event>
<event>
 6   0  0.4500850E-05  0.3244269E+03  0.7546771E-02  0.1082550E+00
       21   -1    0    0  502  503  0.00000000000E+00  0.00000000000E+00  0.15118843765E+04  0.15118843765E+04  0.00000000000E+00 0. -1.
       21   -1    0    0  501  504  0.00000000000E+00  0.00000000000E+00 -0.46008190645E+03  0.46008190645E+03  0.00000000000E+00 0. -1.
        6    1    1    2  501    0 -0.42568186740E+03  0.21473363044E+03 -0.56439547802E+02  0.51032343355E+03  0.17300000000E+03 0. -1.
       -6    1    1    2    0  503  0.18884186122E+03  0.78310471935E+02  0.56106208625E+03  0.62170205339E+03  0.17300000000E+03 0. -1.
        6    1    1    2  502    0  0.28471968985E+03 -0.22831695088E+03  0.21674699911E+03  0.45836905816E+03  0.17300000000E+03 0. -1.
       -6    1    1    2    0  504 -0.47879683677E+02 -0.64727151490E+02  0.33043293246E+03  0.38157173782E+03  0.17300000000E+03 0. -1.
</event>
<event>
 6   0  0.4500850E-05  0.4533926E+03  0.7546771E-02  0.1056987E+00
       21   -1    0    0  504  503  0.00000000000E+00  0.00000000000E+00  0.21748875089E+04  0.21748875089E+04  0.00000000000E+00 0. -1.
       21   -1    0    0  502  504  0.00000000000E+00  0.00000000000E+00 -0.28272520596E+04  0.28272520596E+04  0.00000000000E+00 0.  1.
        6    1    1    2  501    0 -0.19605117431E+03 -0.45970077028E+03  0.56476255523E+03  0.77372256328E+03  0.17300000000E+03 0. -1.
       -6    1    1    2    0  503  0.67336392028E+02  0.38901006081E+03  0.12693517135E+04  0.13405393652E+04  0.17300000000E+03 0.  1.
        6    1    1    2  502    0  0.74083114964E+02  0.10413995602E+02 -0.26375149006E+04  0.26442410272E+04  0.17300000000E+03 0.  1.
       -6    1    1    2    0  501  0.54631667314E+02  0.60276713870E+02  0.15103608111E+03  0.24363661282E+03  0.17300000000E+03 0.  1.
</event>
<event>
 6   0  0.4500850E-05  0.2151471E+03  0.7546771E-02  0.1140316E+00
       21   -1    0    0  504  503  0.00000000000E+00  0.00000000000E+00  0.12614921522E+03  0.12614921522E+03  0.00000000000E+00 0.  1.
       21   -1    0    0  502  504  0.00000000000E+00  0.00000000000E+00 -0.18776271119E+04  0.18776271119E+04  0.00000000000E+00 0.  1.
        6    1    1    2  501    0 -0.16341734473E+03 -0.63440690916E+02 -0.49620705152E+03  0.55396785810E+03  0.17300000000E+03 0.  1.
       -6    1    1    2    0  503  0.26390156158E+02 -0.66722931580E+02 -0.11701940239E+03  0.22084141477E+03  0.17300000000E+03 0. -1.
        6    1    1    2  502    0  0.12833632379E+03  0.33866483054E+01 -0.79879754671E+03  0.82733802162E+03  0.17300000000E+03 0.  1.
       -6    1    1    2    0  501  0.86908647860E+01  0.12677697419E+03 -0.33945389610E+03  0.40162903269E+03  0.17300000000E+03 0.  1.
</event>
<event>
 6   0  0.4500850E-05  0.4870526E+03  0.7546771E-02  0.1046966E+00
       21   -1    0    0  501  503  0.00000000000E+00  0.00000000000E+00  0.10820481994E+04  0.10820481994E+04  0.00000000000E+00 0. -1.
       21   -1    0    0  502  504  0.00000000000E+00  0.00000000000E+00 -0.11360860773E+04  0.11360860773E+04  0.00000000000E+00 0.  1.
        6    1    1    2  501    0 -0.14100759087E+03 -0.38013331982E+03 -0.40610465663E+02  0.44267673470E+03  0.17300000000E+03 0. -1.
       -6    1    1    2    0  504  0.45192430773E+03  0.24707531970E+03 -0.66267529316E+03  0.85694185199E+03  0.17300000000E+03 0.  1.
        6    1    1    2  502    0 -0.29162130985E+03  0.30275899670E+02  0.13545233651E+03  0.36638225111E+03  0.17300000000E+03 0. -1.
       -6    1    1    2    0  503 -0.19295407020E+02  0.10278210045E+03  0.51379554442E+03  0.55213343891E+03  0.17300000000E+03 0.  1.
</event>
<event>
 6   0  0.4500850E-05  0.2542192E+03  0.7546771E-02  0.1122396E+00
       21   -1    0    0  502  503  0.00000000000E+00  0.00000000000E+00  0.13908943147E+04  0.13908943147E+04  0.00000000000E+00 0. -1.
       21   -1    0    0  501  504  0.00000000000E+00  0.00000000000E+00 -0.76975697988E+03  0.76975697988E+03  0.00000000000E+00 0. -1.
        6    1    1    2  501    0  0.60806659389E+02 -0.21159216656E+03 -0.44918363774E+03  0.52930486035E+03  0.17300000000E+03 0. -1.
       -6    1    1    2    0  503  0.26522347086E+02 -0.52182394673E+01 -0.16360413499E+03  0.23963717972E+03  0.17300000000E+03 0. -1.
        6    1    1    2  502    0  0.68106227024E+02  0.17884117349E+03  0.18708257606E+03  0.31867148250E+03  0.17300000000E+03 0.  1.
       -6    1    1    2    0  504 -0.15543523350E+03  0.37969232535E+02  0.10468425315E+04  0.10730377720E+04  0.17300000000E+03 0. -1.
</event>
<event>
 6   0  0.4500850E-05  0.2584394E+03  0.7546771E-02  0.1112504E+00
       21   -1    0    0  501  503  0.00000000000E+00  0.00000000000E+00  0.17733099243E+04  0.17733099243E+04  0.00000000000E+00 0. -1.
       21   -1    0    0  502  504  0.00000000000E+00  0.00000000000E+00 -0.10057230531E+04  0.10057230531E+04  0.00000000000E+00 0. -1.
        6    1    1    2  501    0  0.86515401574E+02  0.76912881089E+02 -0.33046894108E+03  0.39056270560E+03  0.17300000000E+03 0.  1.
       -6    1    1    2    0  504  0.13788917862E+03 -0.58180701515E+02 -0.48934794935E+03  0.54017481906E+03  0.17300000000E+03 0. -1.
        6    1    1    2  502    0 -0.34461854635E+03  0.80239098164E+02  0.20043397906E+03  0.44193103005E+03  0.17300000000E+03 0. -1.
       -6    1    1    2    0  503  0.12021396615E+03 -0.98971277737E+02  0.13869697826E+04  0.14063644227E+04  0.17300000000E+03 0. -1.
</event>
<event>
 6   0  0.4500850E-05  0.4874380E+03  0.7546771E-02  0.1040565E+00
       21   -1    0    0  504  503  0.00000000000E+00  0.00000000000E+00  0.58139932153E+03  0.58139932153E+03  0.00000000000E+00 0. -1.
       21   -1    0    0  502  504  0.00000000000E+00  0.00000000000E+00 -0.31246542249E+04  0.31246542249E+04  0.00000000000E+00 0. -1.
        6    1    1    2  501    0 -0.54397814315E+03 -0.29779084311E+03 -0.97029254172E+03  0.11644690734E+04  0.17300000000E+03 0. -1.
       -6    1    1    2    0  501 -0.36455047525E+02  0.39681730683E+03 -0.48780388023E+03  0.65320331525E+03  0.17300000000E+03 0. -1.
        6    1    1    2  502    0  0.44753806296E+03 -0.15273814173E+03 -0.14078465849E+04  0.14951856956E+04  0.17300000000E+03 0.  1.
       -6    1    1    2    0  503  0.13289512771E+03  0.53711678007E+02  0.32268810347E+03  0.39319546214E+03  0.17300000000E+03 0. -1.
</event>
<event>
 6   0  0.4500850E-05  0.4815488E+03  0.7546771E-02  0.1041631E+00
       21   -1    0    0  502  503  0.00000000000E+00  0.00000000000E+00  0.88361805469E+03  0.88361805469E+03  0.00000000000E+00 0. -1.
       21   -1    0    0  501  504  0.00000000000E+00  0.00000000000E+00 -0.13777722325E+04  0.13777722325E+04  0.00000000000E+00 0.  1.
        6    1    1    2  501    0 -0.25287779421E+03  0.38276225226E+03 -0.70092546233E+03  0.85538273556E+03  0.17300000000E+03 0.  1.
       -6    1    1    2    0  504  0.27186718405E+03  0.21297706016E+03 -0.18109167713E+03  0.42660777002E+03  0.17300000000E+03 0.  1.
        6    1    1    2  502    0 -0.11938702253E+03 -0.62887253009E+03  0.40326102418E+03  0.77606853684E+03  0.17300000000E+03 0. -1.
       -6    1    1    2    0  503  0.10039763269E+03  0.33133217670E+02 -0.15398062513E+02  0.20333124475E+03  0.17300000000E+03 0. -1.
</event>
<event>
 6   0  0.4500850E-05  0.3137589E+03  0.7546771E-02  0.1081665E+00
       21   -1    0    0  501  503  0.00000000000E+00  0.00000000000E+00  0.17336231151E+04  0.17336231151E+04  0.00000000000E+00 0. -1.
       21   -1    0    0  502  504  0.00000000000E+00  0.00000000000E+00 -0.97111749717E+03  0.97111749717E+03  0.00000000000E+00 0. -1.
        6    1    1    2  501    0 -0.11432291088E+03 -0.23235173356E+02 -0.42444101255E+03  0.47295747628E+03  0.17300000000E+03 0.  1.
       -6    1    1    2    0  503 -0.85573764023E+02  0.15763167933E+02  0.11404721270E+04  0.11567960145E+04  0.17300000000E+03 0. -1.
        6    1    1    2  502    0  0.52431595209E+03 -0.95946856713E+02  0.28089427526E+03  0.62685214429E+03  0.17300000000E+03 0. -1.
       -6    1    1    2    0  504 -0.32441927718E+03  0.10341886214E+03 -0.23441977178E+03  0.44813497727E+03  0.17300000000E+03 0. -1.
</event>
<event>
 6   0  0.4500850E-05  0.2034756E+03  0.7546771E-02  0.1148669E+00
       21   -1    0    0  501  503  0.00000000000E+00  0.00000000000E+00  0.10724076899E+03  0.10724076899E+03  0.00000000000E+00 0. -1.
       21   -1    0    0  502  504  0.00000000000E+00  0.00000000000E+00 -0.17361654108E+04  0.17361654108E+04  0.00000000000E+00 0. -1.
        6    1    1    2  501    0 -0.65960248612E+02  0.91906539607E+02 -0.21461293960E+03  0.29796858939E+03  0.17300000000E+03 0. -1.
       -6    1    1    2    0  504 -0.11815841929E+03 -0.19730820176E+02 -0.49469178986E+03  0.53758690858E+03  0.17300000000E+03 0.  1.
        6    1    1    2  502    0  0.11824727112E+03 -0.29806987774E+02 -0.36889840024E+03  0.42530683435E+03  0.17300000000E+03 0. -1.
       -6    1    1    2    0  503  0.65871396783E+02 -0.42368731657E+02 -0.55072151212E+03  0.58254384749E+03  0.17300000000E+03 0. -1.
</event>
<event>
 6   0  0.4500850E-05  0.1897105E+03  0.7546771E-02  0.1158877E+00
       21   -1    0    0  501  503  0.00000000000E+00  0.00000000000E+00  0.20923423550E+04  0.20923423550E+04  0.00000000000E+00 0.  1.
       21   -1    0    0  502  504  0.00000000000E+00  0.00000000000E+00 -0.24965176663E+03  0.24965176663E+03  0.00000000000E+00 0.  1.
        6    1    1    2  501    0  0.10330671066E+03  0.70154233391E+02  0.49474540184E+02  0.21902196935E+03  0.17300000000E+03 0.  1.
       -6    1    1    2    0  503  0.12423132521E+02 -0.65696483084E+02  0.17310722338E+04  0.17409797359E+04  0.17300000000E+03 0.  1.
        6    1    1    2  502    0 -0.70045277433E+02  0.43390629774E+02  0.35184851381E+02  0.19482315419E+03  0.17300000000E+03 0.  1.
       -6    1    1    2    0  504 -0.45684565747E+02 -0.47848380080E+02  0.26958962977E+02  0.18716926219E+03  0.17300000000E+03 0. -1.
</event>
<event>
 6   0  0.4500850E-05  0.7734238E+03  0.7546771E-02  0.9931243E-01
       21   -1    0    0  501  503  0.00000000000E+00  0.00000000000E+00  0.13460528189E+04  0.13460528189E+04  0.00000000000E+00 0. -1.
       21   -1    0    0  502  504  0.00000000000E+00  0.00000000000E+00 -0.12851734442E+04  0.12851734442E+04  0.00000000000E+00 0. -1.
        6    1    1    2  501    0 -0.16647661605E+03  0.40235827617E+03 -0.52723626309E+03  0.70534652705E+03  0.17300000000E+03 0. -1.
       -6    1    1    2    0  503  0.13959467158E+03  0.31153137159E+03 -0.20665492570E+03  0.43494106053E+03  0.17300000000E+03 0.  1.
        6    1    1    2  502    0  0.17643738014E+03 -0.65890490797E+03  0.96947322874E+03  0.11979537421E+04  0.17300000000E+03 0. -1.
       -6    1    1    2    0  504 -0.14955543568E+03 -0.54984739795E+02 -0.17470266528E+03  0.29298493341E+03  0.17300000000E+03 0. -1.
</event>
<event>
 6   0  0.4500850E-05  0.3631721E+03  0.7546771E-02  0.1065382E+00
       21   -1    0    0  502  503  0.00000000000E+00  0.00000000000E+00  0.19859062449E+04  0.19859062449E+04  0.00000000000E+00 0.  1.
       21   -1    0    0  501  504  0.00000000000E+00  0.00000000000E+00 -0.80235683157E+03  0.80235683157E+03  0.00000000000E+00 0.  1.
        6    1    1    2  501    0 -0.22299445685E+03  0.54699350992E+03  0.94174389976E+03  0.11250506657E+04  0.17300000000E+03 0.  1.
       -6    1    1    2    0  504 -0.12470101312E+03 -0.13544576515E+03 -0.23592669699E+03  0.34566791046E+03  0.17300000000E+03 0. -1.
        6    1    1    2  502    0  0.31334308756E+03 -0.31071385095E+03 -0.26809104185E+03  0.54454457523E+03  0.17300000000E+03 0.  1.
       -6    1    1    2    0  503  0.34352382403E+02 -0.10083389383E+03  0.74582325238E+03  0.77299992504E+03  0.17300000000E+03 0.  1.
</event>
<event>
 6   0  0.4500850E-05  0.4509319E+03  0.7546771E-02  0.1040687E+00
       21   -1    0    0  502  503  0.00000000000E+00  0.00000000000E+00  0.11419432831E+04  0.11419432831E+04  0.00000000000E+00 0. -1.
       21   -1    0    0  501  504  0.00000000000E+00  0.00000000000E+00 -0.48968020139E+03  0.48968020139E+03  0.00000000000E+00 0.  1.
        6    1    1    2  501    0 -0.12653040934E+03  0.12543509288E+03 -0.12554832718E+03  0.27827197033E+03  0.17300000000E+03 0.  1.
       -6    1    1    2    0  504 -0.86069109780E+01 -0.25147666814E+03  0.70131509263E+03  0.76490944084E+03  0.17300000000E+03 0.  1.
        6    1    1    2  502    0  0.26641214708E+03  0.10970411338E+03  0.13621454108E+03  0.36262077409E+03  0.17300000000E+03 0. -1.
       -6    1    1    2    0  503 -0.13127482676E+03  0.16337461888E+02 -0.59718224833E+02  0.22582129921E+03  0.17300000000E+03 0.  1.
</event>
<event>
 6   0  0.4500850E-05  0.5984835E+03  0.7546771E-02  0.1030631E+00
       21   -1    0    0  504  503  0.00000000000E+00  0.00000000000E+00  0.51336507991E+03  0.51336507991E+03  0.00000000000E+00 0.  1.
       21   -1    0    0  501  504  0.00000000000E+00  0.00000000000E+00 -0.16235944539E+04  0.16235944539E+04  0.00000000000E+00 0.  1.
        6    1    1    2  501    0  0.30364689186E+00  0.29196282104E+02 -0.15215188123E+03  0.23223201772E+03  0.17300000000E+03 0.  1.
       -6    1    1    2    0  502  0.17919304642E+03 -0.63005186977E+02 -0.36811893810E+03  0.44891018485E+03  0.17300000000E+03 0. -1.
        6    1    1    2  502    0  0.33974875004E+03  0.35574430109E+03 -0.63212621833E+03  0.81944845891E+03  0.17300000000E+03 0.  1.
       -6    1    1    2    0  503 -0.51924544336E+03 -0.32193539622E+03  0.42167663704E+02  0.63636887231E+03  0.17300000000E+03 0.  1.
</event>
<event>
 6   0  0.4500850E-05  0.5259111E+03  0.7546771E-02  0.1031390E+00
       21   -1    0    0  501  503  0.00000000000E+00  0.00000000000E+00  0.36248670253E+03  0.36248670253E+03  0.00000000000E+00 0.  1.
       21   -1    0    0  503  504  0.00000000000E+00  0.00000000000E+00 -0.22245377153E+04  0.22245377153E+04  0.00000000000E+00 0.  1.
        6    1    1    2  501    0  0.34345269522E+02 -0.19319170353E+03  0.14790428587E+03  0.30051174624E+03  0.17300000000E+03 0.  1.
       -6    1    1    2    0  504 -0.10121755595E+03 -0.15408729044E+03 -0.11528275461E+04  0.11802238084E+04  0.17300000000E+03 0.  1.
        6    1    1    2  502    0  0.22503396905E+02  0.42190233641E+03 -0.76740495493E+03  0.89294308284E+03  0.17300000000E+03 0.  1.
       -6    1    1    2    0  502  0.44368889528E+02 -0.74623342442E+02 -0.89722797572E+02  0.21334578036E+03  0.17300000000E+03 0.  1.
</event>
<event>
 6   0  0.4500850E-05  0.3148971E+03  0.7546771E-02  0.1084423E+00
       21   -1    0    0  502  503  0.00000000000E+00  0.00000000000E+00  0.11395738395E+04  0.11395738395E+04  0.00000000000E+00 0. -1.
       21   -1    0    0  501  504  0.00000000000E+00  0.00000000000E+00 -0.92939303726E+03  0.92939303726E+03  0.00000000000E+00 0. -1.
        6    1    1    2  501    0  0.97565105036E+02  0.13232760049E+03  0.58990406289E+03  0.63635316216E+03  0.17300000000E+03 0.  1.
       -6    1    1    2    0  503 -0.87609907559E+02  0.20993037109E+03  0.31984617805E+03  0.42892520819E+03  0.17300000000E+03 0. -1.
        6    1    1    2  502    0 -0.23063979391E+03 -0.45527763579E+02 -0.40946143688E+03  0.50284705436E+03  0.17300000000E+03 0. -1.
       -6    1    1    2    0  504  0.22068459643E+03 -0.29673020800E+03 -0.29010800178E+03  0.50084145210E+03  0.17300000000E+03 0.  1.
</event>
<event>
 6   0  0.4500850E-05  0.5993119E+03  0.7546771E-02  0.1000961E+00
       21   -1    0    0  501  503  0.00000000000E+00  0.00000000000E+00  0.89805102628E+03  0.89805102628E+03  0.00000000000E+00 0.  1.
       21   -1    0    0  502  504  0.00000000000E+00  0.00000000000E+00 -0.82527603831E+03  0.82527603831E+03  0.00000000000E+00 0.  1.
        6    1    1    2  501    0  0.88273979261E+02 -0.26282375759E+03  0.59914549372E+02  0.33224595738E+03  0.17300000000E+03 0.  1.
       -6    1    1    2    0  503 -0.35916228547E+03  0.31817033668E+03  0.95472278363E+02  0.51891604946E+03  0.17300000000E+03 0.  1.
        6    1    1    2  502    0  0.17029630752E+03  0.32446719860E+03 -0.16048780384E+03  0.43584989446E+03  0.17300000000E+03 0.  1.
       -6    1    1    2    0  504  0.10059199869E+03 -0.37981377769E+03  0.77875964078E+02  0.43631516328E+03  0.17300000000E+03 0.  1.
</event>
<event>
 6   0  0.4500850E-05  0.2664841E+03  0.7546771E-02  0.1108182E+00
       21   -1    0    0  501  503  0.00000000000E+00  0.00000000000E+00  0.96268182100E+03  0.96268182100E+03  0.00000000000E+00 0.  1.
       21   -1    0    0  502  504  0.00000000000E+00  0.00000000000E+00 -0.69179374016E+03  0.69179374016E+03  0.00000000000E+00 0. -1.
        6    1    1    2  501    0  0.87989371884E+02 -0.36575857652E+02  0.33388475594E+03  0.38792776799E+03  0.17300000000E+03 0.  1.
       -6    1    1    2    0  504 -0.22620524756E+02  0.33613744558E+03  0.39374735640E+03  0.54632046560E+03  0.17300000000E+03 0.  1.
        6    1    1    2  502    0  0.17048443891E+02  0.15639060107E+02 -0.22433917804E+03  0.28423985724E+03  0.17300000000E+03 0.  1.
       -6    1    1    2    0  503 -0.82417291019E+02 -0.31520064803E+03 -0.23240485346E+03  0.43598747034E+03  0.17300000000E+03 0. -1.
</event>
<event>
 6   0  0.4500850E-05  0.2231012E+03  0.7546771E-02  0.1141963E+00
       21   -1    0    0  501  503  0.00000000000E+00  0.00000000000E+00  0.94101912293E+03  0.94101912293E+03  0.00000000000E+00 0.  1.
       21   -1    0    0  503  504  0.00000000000E+00  0.00000000000E+00 -0.31955053809E+03  0.31955053809E+03  0.00000000000E+00 0.  1.
        6    1    1    2  501    0 -0.52719128236E+01  0.17807465854E+03  0.20672730606E+03  0.32311539138E+03  0.17300000000E+03 0.  1.
       -6    1    1    2    0  502  0.26884878389E+02 -0.12495401860E+03  0.51614830266E+03  0.55917293728E+03  0.17300000000E+03 0.  1.
        6    1    1    2  502    0 -0.34259443880E+02 -0.55057673385E+02 -0.17497378906E+02  0.18558075105E+03  0.17300000000E+03 0.  1.
       -6    1    1    2    0  504  0.12646478314E+02  0.19370334524E+01 -0.83909644974E+02  0.19270058130E+03  0.17300000000E+03 0. -1.
</event>
<event>
 6   0  0.4500850E-05  0.2454242E+03  0.7546771E-02  0.1122421E+00
       21   -1    0    0  502  503  0.00000000000E+00  0.00000000000E+00  0.15275817797E+04  0.15275817797E+04  0.00000000000E+00 0.  1.
       21   -1    0    0  501  504  0.00000000000E+00  0.00000000000E+00 -0.34673645244E+03  0.34673645244E+03  0.00000000000E+00 0.  1.
        6    1    1    2  501    0 -0.16920928660E+03 -0.22586125958E+03 -0.10621294615E+03  0.34764246171E+03  0.17300000000E+03 0.  1.
       -6    1    1    2    0  503  0.91865837683E+02 -0.87207271508E+01  0.93309875596E+03  0.95347662351E+03  0.17300000000E+03 0.  1.
        6    1    1    2  502    0  0.22181913986E+02  0.18621102661E+03  0.15041597229E+03  0.29617654947E+03  0.17300000000E+03 0.  1.
       -6    1    1    2    0  504  0.55161534931E+02  0.48370960126E+02  0.20354354518E+03  0.27702259746E+03  0.17300000000E+03 0.  1.
</event>
<event>
 6   0  0.4500850E-05  0.2207307E+03  0.7546771E-02  0.1139768E+00
       21   -1    0    0  502  503  0.00000000000E+00  0.00000000000E+00  0.47347544897E+03  0.47347544897E+03  0.00000000000E+00 0. -1.
       21   -1    0    0  501  504  0.00000000000E+00  0.00000000000E+00 -0.64831794490E+03  0.64831794490E+03  0.00000000000E+00 0. -1.
        6    1    1    2  501    0  0.37346921406E+02  0.12534297688E+02 -0.26160050519E+03  0.31609448820E+03  0.17300000000E+03 0. -1.
       -6    1    1    2    0  504 -0.14378571326E+03  0.20956394181E+02 -0.10319944639E+03  0.24838000630E+03  0.17300000000E+03 0. -1.
        6    1    1    2  502    0 -0.10039667312E+03 -0.64355749934E+02  0.19385210328E+03  0.28588248017E+03  0.17300000000E+03 0. -1.
       -6    1    1    2    0  503  0.20683546498E+03  0.30865058065E+02 -0.38946476311E+01  0.27143641919E+03  0.17300000000E+03 0. -1.
</event>
<event>
 6   0  0.4500850E-05  0.2165915E+03  0.7546771E-02  0.1137626E+00
       21   -1    0    0  504  503  0.00000000000E+00  0.00000000000E+00  0.14206400039E+04  0.14206400039E+04  0.00000000000E+00 0.  1.
       21   -1    0    0  502  504  0.00000000000E+00  0.00000000000E+00 -0.23407105097E+03  0.23407105097E+03  0.00000000000E+00 0.  1.
        6    1    1    2  501    0  0.29155267285E+02 -0.21865885400E+03  0.20621385952E+03  0.34801563169E+03  0.17300000000E+03 0.  1.
       -6    1    1    2    0  503 -0.40080725709E+02  0.67649989400E+02  0.75078213042E+03  0.77445838687E+03  0.17300000000E+03 0.  1.
        6    1    1    2  502    0 -0.52867503724E+02  0.10231603172E+03 -0.30164302868E+02  0.21000578198E+03  0.17300000000E+03 0.  1.
       -6    1    1    2    0  501  0.63792962149E+02  0.48692832887E+02  0.25973726587E+03  0.32223125434E+03  0.17300000000E+03 0.  1.
</event>
<event>
 6   0  0.4500850E-05  0.2901874E+03  0.7546771E-02  0.1106842E+00
       21   -1    0    0  502  503  0.00000000000E+00  0.00000000000E+00  0.16557194292E+04  0.16557194292E+04  0.00000000000E+00 0.  1.
       21   -1    0    0  503  504  0.00000000000E+00  0.00000000000E+00 -0.49504515223E+03  0.49504515223E+03  0.00000000000E+00 0.  1.
        6    1    1    2  501    0  0.20638704560E+03  0.10045277724E+03 -0.29646499419E+03  0.41292477018E+03  0.17300000000E+03 0.  1.
       -6    1    1    2    0  501 -0.26723677532E+03 -0.30760898664E+02  0.32296393616E+03  0.45452880110E+03  0.17300000000E+03 0.  1.
        6    1    1    2  502    0 -0.53720812430E+01  0.74546723669E+02  0.99005217101E+03  0.10078285442E+04  0.17300000000E+03 0.  1.
       -6    1    1    2    0  504  0.66221810957E+02 -0.14423860225E+03  0.14412316398E+03  0.27548246591E+03  0.17300000000E+03 0. -1.
</event>
<event>
 6   0  0.4500850E-05  0.2742675E+03  0.7546771E-02  0.1115905E+00
       21   -1    0    0  501  503  0.00000000000E+00  0.00000000000E+00  0.23749455895E+03  0.23749455895E+03  0.00000000000E+00 0.  1.
       21   -1    0    0  503  504  0.00000000000E+00  0.00000000000E+00 -0.12100904477E+04  0.12100904477E+04  0.00000000000E+00 0. -1.
        6    1    1    2  501    0  0.36599661160E+02  0.14801264448E+03 -0.84375274720E+02  0.24555134922E+03  0.17300000000E+03 0.  1.
       -6    1    1    2    0  502 -0.37385980549E+02  0.10489599339E+02 -0.78944400447E+02  0.19408493398E+03  0.17300000000E+03 0.  1.
        6    1    1    2  502    0  0.16258398384E+03 -0.19130943389E+03 -0.65740267879E+03  0.72466553208E+03  0.17300000000E+03 0. -1.
       -6    1    1    2    0  504 -0.16179766445E+03  0.32807190077E+02 -0.15187353478E+03  0.28328319136E+03  0.17300000000E+03 0.  1.
</event>
<event>
 6   0  0.4500850E-05  0.2618275E+03  0.7546771E-02  0.1119337E+00
       21   -1    0    0  501  503  0.00000000000E+00  0.00000000000E+00  0.77111496217E+03  0.77111496217E+03  0.00000000000E+00 0. -1.
       21   -1    0    0  503  504  0.00000000000E+00  0.00000000000E+00 -0.48016086602E+03  0.48016086602E+03  0.00000000000E+00 0.  1.
        6    1    1    2  501    0 -0.30823456048E+02  0.14957021888E+02  0.20745674466E+03  0.27228863151E+03  0.17300000000E+03 0. -1.
       -6    1    1    2    0  504  0.17492086492E+03  0.58476506742E+02 -0.19952318605E+03  0.32211071481E+03  0.17300000000E+03 0.  1.
        6    1    1    2  502    0 -0.35221311575E+02  0.15991831364E+03  0.24933220668E+03  0.34483323088E+03  0.17300000000E+03 0. -1.
       -6    1    1    2    0  502 -0.10887609729E+03 -0.23335184227E+03  0.33688330872E+02  0.31204325099E+03  0.17300000000E+03 0.  1.
</event>
<event>
 6   0  0.4500850E-05  0.2358543E+03  0.7546771E-02  0.1122733E+00
       21   -1    0    0  502  503  0.00000000000E+00  0.00000000000E+00  0.13109477977E+04  0.13109477977E+04  0.00000000000E+00 0. -1.
       21   -1    0    0  501  504  0.00000000000E+00  0.00000000000E+00 -0.63049690301E+03  0.63049690301E+03  0.00000000000E+00 0. -1.
        6    1    1    2  501    0  0.89586660667E+02 -0.11090347035E+02 -0.46291481775E+03  0.50236231354E+03  0.17300000000E+03 0. -1.
       -6    1    1    2    0  504 -0.25341127633E+03  0.40452043662E+02  0.38640283274E+03  0.49506544209E+03  0.17300000000E+03 0. -1.
        6    1    1    2  502    0 -0.33834027924E+02  0.81214945290E+02  0.80779276776E+02  0.21022583176E+03  0.17300000000E+03 0. -1.
       -6    1    1    2    0  503  0.19765864358E+03 -0.11057664192E+03  0.67618360296E+03  0.73379111335E+03  0.17300000000E+03 0. -1.
</event>
<event>
 6   0  0.4500850E-05  0.3310685E+03  0.7546771E-02  0.1093066E+00
       21   -1    0    0  502  503  0.00000000000E+00  0.00000000000E+00  0.15120519703E+04  0.15120519703E+04  0.00000000000E+00 0. -1.
       21   -1    0    0  503  504  0.00000000000E+00  0.00000000000E+00 -0.48313121350E+03  0.48313121350E+03  0.00000000000E+00 0. -1.
        6    1    1    2  501    0 -0.17049142222E+03 -0.20829655011E+03 -0.27699671614E+03  0.42321502643E+03  0.17300000000E+03 0. -1.
       -6    1    1    2    0  501 -0.13881615665E+03  0.44460286895E+02  0.49854372563E+03  0.54746825371E+03  0.17300000000E+03 0. -1.
        6    1    1    2  502    0 -0.79455858451E+01 -0.54140907534E+02  0.39394852638E+03  0.43372665545E+03  0.17300000000E+03 0.  1.
       -6    1    1    2    0  504  0.31725316472E+03  0.21797717075E+03  0.41342522090E+03  0.59077324819E+03  0.17300000000E+03 0. -1.
</event>
<event>
 6   0  0.4500850E-05  0.3930250E+03  0.7546771E-02  0.1075166E+00
       21   -1    0    0  501  503  0.00000000000E+00  0.00000000000E+00  0.10867965211E+04  0.10867965211E+04  0.00000000000E+00 0.  1.
       21   -1    0    0  502  504  0.00000000000E+00  0.00000000000E+00 -0.57059943170E+03  0.57059943170E+03  0.00000000000E+00 0. -1.
        6    1    1    2  501    0 -0.26796299467E+03  0.14280775745E+03 -0.65740269907E+02  0.35559668894E+03  0.17300000000E+03 0. -1.
       -6    1    1    2    0  504  0.34898851696E+03 -0.10901508509E+03  0.76965838066E+03  0.86947127421E+03  0.17300000000E+03 0.  1.
        6    1    1    2  502    0  0.17688684447E+02  0.19588294989E+02 -0.13056910413E+03  0.21834349500E+03  0.17300000000E+03 0.  1.
       -6    1    1    2    0  503 -0.98714206737E+02 -0.53380967350E+02 -0.57151917267E+02  0.21398449461E+03  0.17300000000E+03 0. -1.
</event>
<event>
 6   0  0.4500850E-05  0.2067488E+03  0.7546771E-02  0.1145525E+00
       21   -1    0    0  501  503  0.00000000000E+00  0.00000000000E+00  0.18217883308E+04  0.18217883308E+04  0.00000000000E+00 0. -1.
       21   -1    0    0  503  504  0.00000000000E+00  0.00000000000E+00 -0.16853048815E+03  0.16853048815E+03  0.00000000000E+00 0. -1.
        6    1    1    2  501    0 -0.42274506610E+01 -0.54555033072E+02  0.78544140167E+03  0.80612735869E+03  0.17300000000E+03 0.  1.
       -6    1    1    2    0  504 -0.70587158168E+02  0.18122816170E+02  0.14200528670E+02  0.18825949745E+03  0.17300000000E+03 0. -1.
        6    1    1    2  502    0  0.37260241875E+02  0.17848129291E+03  0.62561191154E+03  0.67421299409E+03  0.17300000000E+03 0. -1.
       -6    1    1    2    0  502  0.37554366954E+02 -0.14204907601E+03  0.22800400077E+03  0.32171896873E+03  0.17300000000E+03 0. -1.
</event>
<event>
 6   0  0.4500850E-05  0.2535153E+03  0.7546771E-02  0.1119733E+00
       21   -1    0    0  501  503  0.00000000000E+00  0.00000000000E+00  0.26998601051E+04  0.26998601051E+04  0.00000000000E+00 0.  1.
       21   -1    0    0  502  504  0.00000000000E+00  0.00000000000E+00 -0.18745315174E+03  0.18745315174E+03  0.00000000000E+00 0.  1.
        6    1    1    2  501    0 -0.19445099932E+03  0.93359545470E+01  0.12009941646E+03  0.28679473673E+03  0.17300000000E+03 0.  1.
       -6    1    1    2    0  503 -0.10830994723E+02  0.80097904413E+02  0.19139995722E+03  0.27036258684E+03  0.17300000000E+03 0. -1.
        6    1    1    2  502    0  0.68055484473E+02  0.14374530749E+03  0.18056647667E+04  0.18208922296E+04  0.17300000000E+03 0.  1.
       -6    1    1    2    0  504  0.13722650957E+03 -0.23317916645E+03  0.39524281301E+03  0.50926370363E+03  0.17300000000E+03 0. -1.
</event>
<event>
 6   0  0.4500850E-05  0.2568709E+03  0.7546771E-02  0.1118287E+00
       21   -1    0    0  501  503  0.00000000000E+00  0.00000000000E+00  0.17052336908E+03  0.17052336908E+03  0.00000000000E+00 0.  1.
       21   -1    0    0  503  504  0.00000000000E+00  0.00000000000E+00 -0.21291225174E+04  0.21291225174E+04  0.00000000000E+00 0.  1.
        6    1    1    2  501    0  0.13284447549E+03  0.48763150825E+02 -0.15686451053E+03  0.27305855454E+03  0.17300000000E+03 0.  1.
       -6    1    1    2    0  504  0.16043844879E+02 -0.35140266478E+02 -0.10254383968E+04  0.10406465053E+04  0.17300000000E+03 0. -1.
        6    1    1    2  502    0  0.37857887903E+01 -0.23214091469E+03 -0.38995087258E+03  0.48568963289E+03  0.17300000000E+03 0.  1.
       -6    1    1    2    0  502 -0.15267410916E+03  0.21851803034E+03 -0.38634536840E+03  0.50025119378E+03  0.17300000000E+03 0.  1.
</event>
<event>
 6   0  0.4500850E-05  0.2475331E+03  0.7546771E-02  0.1123498E+00
       21   -1    0    0  502  503  0.00000000000E+00  0.00000000000E+00  0.23463274130E+04  0.23463274130E+04  0.00000000000E+00 0. -1.
       21   -1    0    0  501  504  0.00000000000E+00  0.00000000000E+00 -0.14175581852E+04  0.14175581852E+04  0.00000000000E+00 0.  1.
        6    1    1    2  501    0  0.11796775154E+02 -0.15848240798E+03 -0.21370194976E+03  0.31757418169E+03  0.17300000000E+03 0. -1.
       -6    1    1    2    0  504  0.17166705472E+03  0.13846247670E+02  0.11606174203E+04  0.11860114218E+04  0.17300000000E+03 0. -1.
        6    1    1    2  502    0 -0.97404308906E+02 -0.19036566597E+02  0.10979087674E+04  0.11158775254E+04  0.17300000000E+03 0. -1.
       -6    1    1    2    0  503 -0.86059520965E+02  0.16367272691E+03 -0.11160550101E+04  0.11444224693E+04  0.17300000000E+03 0.  1.
</event>
<event>
 6   0  0.4500850E-05  0.7298525E+03  0.7546771E-02  0.1010770E+00
       21   -1    0    0  501  503  0.00000000000E+00  0.00000000000E+00  0.14328491148E+04  0.14328491148E+04  0.00000000000E+00 0.  1.
       21   -1    0    0  502  504  0.00000000000E+00  0.00000000000E+00 -0.15921095005E+04  0.15921095005E+04  0.00000000000E+00 0. -1.
        6    1    1    2  501    0  0.30064240071E+02  0.16193294537E+02  0.51303874305E+03  0.54249777252E+03  0.17300000000E+03 0.  1.
       -6    1    1    2    0  504 -0.37259298306E+03  0.41449717652E+03  0.71028500115E+03  0.91927537943E+03  0.17300000000E+03 0.  1.
        6    1    1    2  502    0  0.87159657598E+02 -0.84367513923E+02 -0.19212215716E+03  0.28557767173E+03  0.17300000000E+03 0. -1.
       -6    1    1    2    0  503  0.25536908539E+03 -0.34632295714E+03 -0.11904619728E+04  0.12776077916E+04  0.17300000000E+03 0. -1.
</event>
<event>
 6   0  0.4500850E-05  0.4275081E+03  0.7546771E-02  0.1041247E+00
       21   -1    0    0  501  503  0.00000000000E+00  0.00000000000E+00  0.13423320564E+04  0.13423320564E+04  0.00000000000E+00 0.  1.
       21   -1    0    0  502  504  0.00000000000E+00  0.00000000000E+00 -0.68390406187E+03  0.68390406187E+03  0.00000000000E+00 0.  1.
        6    1    1    2  501    0 -0.41415979058E+03  0.24445510071E+03 -0.21442569838E+03  0.55425085343E+03  0.17300000000E+03 0. -1.
       -6    1    1    2    0  504 -0.17780596934E+03 -0.19167604391E+03  0.49478887203E+02  0.31738277965E+03  0.17300000000E+03 0.  1.
        6    1    1    2  502    0  0.26612362519E+03 -0.23189813519E+03  0.33171428047E+03  0.51435580376E+03  0.17300000000E+03 0. -1.
       -6    1    1    2    0  503  0.32584213473E+03  0.17911907838E+03  0.49166052524E+03  0.64024668143E+03  0.17300000000E+03 0.  1.
</event>
<event>
 6   0  0.4500850E-05  0.5463344E+03  0.7546771E-02  0.1002346E+00
        2   -1    0    0  502    0  0.00000000000E+00  0.00000000000E+00  0.26840851980E+04  0.26840851980E+04  0.00000000000E+00 0. -1.
       -2   -1    0    0    0  501  0.00000000000E+00  0.00000000000E+00 -0.34490158714E+03  0.34490158714E+03  0.00000000000E+00 0.  1.
        6    1    1    2  502    0  0.30052390990E+03  0.14291386982E+03  0.21228252931E+03  0.43096620153E+03  0.17300000000E+03 0.  1.
       -6    1    1    2    0  501 -0.21004935493E+03 -0.23553952659E+03  0.21479348259E+04  0.21778780077E+04  0.17300000000E+03 0. -1.
        6    1    1    2  503    0  0.13555258731E+02  0.10608875141E+03  0.43093021191E+02  0.20790521083E+03  0.17300000000E+03 0.  1.
       -6    1    1    2    0  503 -0.10402981371E+03 -0.13463094639E+02 -0.64126765586E+02  0.21223736505E+03  0.17300000000E+03 0. -1.
</event>
<event>
 6   0  0.4500850E-05  0.4048311E+03  0.7546771E-02  0.1070671E+00
       21   -1    0    0  504  503  0.00000000000E+00  0.00000000000E+00  0.35940393434E+03  0.35940393434E+03  0.00000000000E+00 0. -1.
       21   -1    0    0  502  504  0.00000000000E+00  0.00000000000E+00 -0.95599771672E+03  0.95599771672E+03  0.00000000000E+00 0. -1.
        6    1    1    2  501    0 -0.53781901435E+02 -0.80485430128E+02  0.97249582005E+02  0.22080959804E+03  0.17300000000E+03 0. -1.
       -6    1    1    2    0  503 -0.77972922893E+02 -0.95334921440E+02  0.65121316883E+02  0.22212228583E+03  0.17300000000E+03 0. -1.
        6    1    1    2  502    0  0.39885345110E+02  0.35446100990E+02 -0.41204091771E+03  0.45005997900E+03  0.17300000000E+03 0. -1.
       -6    1    1    2    0  501  0.91869479217E+02  0.14037425058E+03 -0.34692376356E+03  0.42240978819E+03  0.17300000000E+03 0.  1.
</event>
<event>
 6   0  0.4500850E-05  0.6313650E+03  0.7546771E-02  0.9915675E-01
       -2   -1    0    0    0  501  0.00000000000E+00  0.00000000000E+00  0.52665435882E+03  0.52665435882E+03  0.00000000000E+00 0.  1.
        2   -1    0    0  503    0  0.00000000000E+00  0.00000000000E+00 -0.63222535330E+03  0.63222535330E+03  0.00000000000E+00 0. -1.
        6    1    1    2  502    0 -0.56614165844E+02  0.60907584604E+02  0.20242628503E+03  0.27896289809E+03  0.17300000000E+03 0.  1.
       -6    1    1    2    0  502  0.19804387427E+03 -0.59288029116E+02 -0.11675665302E+03  0.29376446783E+03  0.17300000000E+03 0. -1.
        6    1    1    2  503    0  0.12114934308E+03  0.80346306649E+02 -0.47907008829E+02  0.23099085223E+03  0.17300000000E+03 0. -1.
       -6    1    1    2    0  501 -0.26257905150E+03 -0.81965862137E+02 -0.14333361767E+03  0.35516149397E+03  0.17300000000E+03 0.  1.
</event>
<event>
 6   0  0.4500850E-05  0.1830915E+03  0.7546771E-02  0.1165501E+00
       21   -1    0    0  501  503  0.00000000000E+00  0.00000000000E+00  0.79766978076E+03  0.79766978076E+03  0.00000000000E+00 0. -1.
       21   -1    0    0  503  504  0.00000000000E+00  0.00000000000E+00 -0.54661116323E+03  0.54661116323E+03  0.00000000000E+00 0. -1.
        6    1    1    2  501    0 -0.11456497273E+02 -0.24174109767E+02  0.49985573740E+03  0.52962288198E+03  0.17300000000E+03 0. -1.
       -6    1    1    2    0  502 -0.34546932264E+02 -0.43628622105E+02  0.16703999333E+03  0.24683659892E+03  0.17300000000E+03 0.  1.
        6    1    1    2  502    0  0.77649992826E+02  0.41305573391E+02 -0.13877430545E+03  0.23858537179E+03  0.17300000000E+03 0.  1.
       -6    1    1    2    0  504 -0.31646563289E+02  0.26497158481E+02 -0.27706280775E+03  0.32923609130E+03  0.17300000000E+03 0. -1.
</event>
<event>
 6   0  0.4500850E-05  0.2373728E+03  0.7546771E-02  0.1122226E+00
       21   -1    0    0  502  503  0.00000000000E+00  0.00000000000E+00  0.16066357124E+04  0.16066357124E+04  0.00000000000E+00 0. -1.
       21   -1    0    0  503  504  0.00000000000E+00  0.00000000000E+00 -0.20545268807E+03  0.20545268807E+03  0.00000000000E+00 0.  1.
        6    1    1    2  501    0  0.18058167789E+03  0.19272029702E+03  0.15698267880E+03  0.35259525907E+03  0.17300000000E+03 0.  1.
       -6    1    1    2    0  504 -0.11144012108E+03 -0.20047064899E+03  0.61419517019E+03  0.67806495912E+03  0.17300000000E+03 0. -1.
        6    1    1    2  502    0 -0.11082740485E+03 -0.10911870043E+03  0.22377345732E+03  0.32278966008E+03  0.17300000000E+03 0. -1.
       -6    1    1    2    0  501  0.41685848033E+02  0.11686905240E+03  0.40623171803E+03  0.45863852223E+03  0.17300000000E+03 0.  1.
</event>
<event>
 6   0  0.4500850E-05  0.2782837E+03  0.7546771E-02  0.1101411E+00
       21   -1    0    0  502  503  0.00000000000E+00  0.00000000000E+00  0.13310364760E+04  0.13310364760E+04  0.00000000000E+00 0.  1.
       21   -1    0    0  501  504  0.00000000000E+00  0.00000000000E+00 -0.63940306145E+03  0.63940306145E+03  0.00000000000E+00 0.  1.
        6    1    1    2  501    0 -0.82141874754E+02 -0.19848382697E+03  0.92402268290E+03  0.96430806057E+03  0.17300000000E+03 0.  1.
       -6    1    1    2    0  504 -0.16183840878E+03 -0.97377377688E+02  0.10196295677E+03  0.27568001160E+03  0.17300000000E+03 0. -1.
        6    1    1    2  502    0 -0.76850514930E+02  0.15673156908E+03 -0.20306457643E+03  0.31880246014E+03  0.17300000000E+03 0.  1.
       -6    1    1    2    0  503  0.32083079846E+03  0.13912963558E+03 -0.13128764869E+03  0.41164900515E+03  0.17300000000E+03 0.  1.
</event>
<event>
 6   0  0.4500850E-05  0.4756650E+03  0.7546771E-02  0.1043960E+00
       21   -1    0    0  504  503  0.00000000000E+00  0.00000000000E+00  0.45519561380E+03  0.45519561380E+03  0.00000000000E+00 0.  1.
       21   -1    0    0  502  504  0.00000000000E+00  0.00000000000E+00 -0.28845954029E+04  0.28845954029E+04  0.00000000000E+00 0.  1.
        6    1    1    2  501    0  0.17849717238E+03 -0.92154606541E+02 -0.30496150863E+03  0.40408443895E+03  0.17300000000E+03 0.  1.
       -6    1    1    2    0  501  0.21654253569E+02  0.15999353114E+03 -0.45881584868E+03  0.51624395367E+03  0.17300000000E+03 0. -1.
        6    1    1    2  502    0 -0.37847652888E+03  0.33575163350E+03 -0.18387345791E+04  0.19149014321E+04  0.17300000000E+03 0.  1.
       -6    1    1    2    0  503  0.17832510293E+03 -0.40359055810E+03  0.17311214730E+03  0.50456119199E+03  0.17300000000E+03 0.  1.
</event>
<event>
 6   0  0.4500850E-05  0.2381593E+03  0.7546771E-02  0.1125107E+00
       21   -1    0    0  502  503  0.00000000000E+00  0.00000000000E+00  0.60822627859E+03  0.60822627859E+03  0.00000000000E+00 0.  1.
       21   -1    0    0  501  504  0.00000000000E+00  0.00000000000E+00 -0.51208635910E+03  0.51208635910E+03  0.00000000000E+00 0.  1.
        6    1    1    2  501    0 -0.51656407375E+02 -0.58131595947E+01  0.15782739371E+00  0.18064108657E+03  0.17300000000E+03 0.  1.
       -6    1    1    2    0  503  0.98012789976E+02  0.35940888578E+02  0.25912558253E+03  0.32859294270E+03  0.17300000000E+03 0.  1.
        6    1    1    2  502    0 -0.14840219528E+03  0.16571861310E+03 -0.17246434922E+03  0.33039192188E+03  0.17300000000E+03 0.  1.
       -6    1    1    2    0  504  0.10204581268E+03 -0.19584634208E+03  0.93208587726E+01  0.28068668654E+03  0.17300000000E+03 0.  1.
</event>
<event>
 6   0  0.4500850E-05  0.1969397E+03  0.7546771E-02  0.1154052E+00
       21   -1    0    0  502  503  0.00000000000E+00  0.00000000000E+00  0.93590205642E+03  0.93590205642E+03  0.00000000000E+00 0.  1.
       21   -1    0    0  501  504  0.00000000000E+00  0.00000000000E+00 -0.28634347213E+03  0.28634347213E+03  0.00000000000E+00 0.  1.
        6    1    1    2  501    0  0.97529602921E+02  0.44411737761E+02 -0.68906556460E+02  0.21485236657E+03  0.17300000000E+03 0. -1.
       -6    1    1    2    0  503  0.63746284145E+01 -0.67779306751E+02  0.22896449109E+02  0.18731769188E+03  0.17300000000E+03 0.  1.
        6    1    1    2  502    0 -0.15370993026E+02 -0.72140587777E+02  0.17762582364E+03  0.25868990134E+03  0.17300000000E+03 0. -1.
       -6    1    1    2    0  504 -0.88533238309E+02  0.95508156767E+02  0.51794286800E+03  0.56138556876E+03  0.17300000000E+03 0.  1.
</event>
<event>
 6   0  0.4500850E-05  0.2763603E+03  0.7546771E-02  0.1099190E+00
       21   -1    0    0  501  503  0.00000000000E+00  0.00000000000E+00  0.27013714785E+03  0.27013714785E+03  0.00000000000E+00 0.  1.
       21   -1    0    0  502  504  0.00000000000E+00  0.00000000000E+00 -0.13613746230E+04  0.13613746230E+04  0.00000000000E+00 0.  1.
        6    1    1    2  501    0  0.12038794888E+03 -0.13679688922E+03 -0.13818765139E+03  0.28676030780E+03  0.17300000000E+03 0.  1.
       -6    1    1    2    0  504 -0.14741184410E+03  0.23796331630E+03 -0.25684950584E+03  0.41744156518E+03  0.17300000000E+03 0.  1.
        6    1    1    2  502    0  0.10212676613E+03  0.17960959845E+03 -0.25160624199E+03  0.36867897312E+03  0.17300000000E+03 0.  1.
       -6    1    1    2    0  503 -0.75102870902E+02 -0.28077602553E+03 -0.44459407594E+03  0.55863092475E+03  0.17300000000E+03 0.  1.
</event>
<event>
 6   0  0.4500850E-05  0.3672855E+03  0.7546771E-02  0.1071060E+00
       21   -1    0    0  504  503  0.00000000000E+00  0.00000000000E+00  0.76207413994E+03  0.76207413994E+03  0.00000000000E+00 0.  1.
       21   -1    0    0  502  504  0.00000000000E+00  0.00000000000E+00 -0.46105230785E+03  0.46105230785E+03  0.00000000000E+00 0.  1.
        6    1    1    2  501    0  0.77187855891E+02  0.13642603417E+03  0.20275898108E+03  0.30920904305E+03  0.17300000000E+03 0.  1.
       -6    1    1    2    0  501 -0.34843691283E+02  0.19532185829E+03  0.23768431743E+03  0.35466539992E+03  0.17300000000E+03 0.  1.
        6    1    1    2  502    0 -0.17929452908E+02 -0.95401848526E+02  0.56212274939E+02  0.20618389325E+03  0.17300000000E+03 0.  1.
       -6    1    1    2    0  503 -0.24414711701E+02 -0.23634604394E+03 -0.19563374137E+03  0.35306811155E+03  0.17300000000E+03 0.  1.
</event>
<event>
 6   0  0.4500850E-05  0.2440954E+03  0.7546771E-02  0.1125024E+00
       21   -1    0    0  504  503  0.00000000000E+00  0.00000000000E+00  0.42789631626E+03  0.42789631626E+03  0.00000000000E+00 0.  1.
       21   -1    0    0  501  504  0.00000000000E+00  0.00000000000E+00 -0.98443451396E+03  0.98443451396E+03  0.00000000000E+00 0.  1.
        6    1    1    2  501    0  0.16411180310E+02 -0.21184014649E+03 -0.10869561077E+03  0.29476992775E+03  0.17300000000E+03 0.  1.
       -6    1    1    2    0  502  0.11848453322E+03  0.25027068236E+02  0.95677065432E+00  0.21117493736E+03  0.17300000000E+03 0.  1.
        6    1    1    2  502    0 -0.18850160028E+03  0.13482572759E+03 -0.59916786946E+03  0.66531343435E+03  0.17300000000E+03 0.  1.
       -6    1    1    2    0  503  0.53605886747E+02  0.51987350669E+02  0.15036851189E+03  0.24107253077E+03  0.17300000000E+03 0.  1.
</event>
<event>
 6   0  0.4500850E-05  0.3437875E+03  0.7546771E-02  0.1077164E+00
       21   -1    0    0  502  503  0.00000000000E+00  0.00000000000E+00  0.12503288690E+04  0.12503288690E+04  0.00000000000E+00 0. -1.
       21   -1    0    0  501  504  0.00000000000E+00  0.00000000000E+00 -0.67926685760E+03  0.67926685760E+03  0.00000000000E+00 0.  1.
        6    1    1    2  501    0  0.22636398844E+03  0.37349743089E+03  0.85603157966E+03  0.97645279021E+03  0.17300000000E+03 0. -1.
       -6    1    1    2    0  504 -0.20980496873E+03 -0.44580366315E+02 -0.68600451520E+02  0.28397280841E+03  0.17300000000E+03 0.  1.
        6    1    1    2  502    0 -0.89822276884E+02 -0.27567419048E+03 -0.30475281450E+03  0.45482697663E+03  0.17300000000E+03 0.  1.
       -6    1    1    2    0  503  0.73263257171E+02 -0.53242874100E+02  0.88383697720E+02  0.21434315132E+03  0.17300000000E+03 0.  1.
</event>
<event>
 6   0  0.4500850E-05  0.9084176E+03  0.7546771E-02  0.9415120E-01
        1   -1    0    0  502    0  0.00000000000E+00  0.00000000000E+00  0.16239482033E+04  0.16239482033E+04  0.00000000000E+00 0.  1.
       -1   -1    0    0    0  501  0.00000000000E+00  0.00000000000E+00 -0.52754851207E+03  0.52754851207E+03  0.00000000000E+00 0. -1.
        6    1    1    2  502    0  0.17673687330E+03  0.98666209438E+02  0.45828802294E+03  0.53002627788E+03  0.17300000000E+03 0.  1.
       -6    1    1    2    0  503 -0.49190159622E+03 -0.60025380843E+03  0.32787136471E+03  0.86005839726E+03  0.17300000000E+03 0. -1.
        6    1    1    2  503    0  0.14402362255E+03  0.17563319599E+03  0.93099237698E+02  0.30031032524E+03  0.17300000000E+03 0.  1.
       -6    1    1    2    0  501  0.17114110037E+03  0.32595440300E+03  0.21714106588E+03  0.46110171499E+03  0.17300000000E+03 0. -1.
</event>
<event>
 6   0  0.4500850E-05  0.2276137E+03  0.7546771E-02  0.1128660E+00
       21   -1    0    0  501  503  0.00000000000E+00  0.00000000000E+00  0.11636257826E+04  0.11636257826E+04  0.00000000000E+00 0.  1.
       21   -1    0    0  502  504  0.00000000000E+00  0.00000000000E+00 -0.23719220958E+03  0.23719220958E+03  0.00000000000E+00 0.  1.
        6    1    1    2  501    0  0.18062916782E+03  0.18015384871E+03  0.98227377356E+02  0.32351185934E+03  0.17300000000E+03 0. -1.
       -6    1    1    2    0  503  0.39860414859E+02  0.62221984411E+00  0.36056269437E+03  0.40190010749E+03  0.17300000000E+03 0.  1.
        6    1    1    2  502    0 -0.17598104032E+03 -0.15316470637E+03  0.36864713893E+03  0.46931702171E+03  0.17300000000E+03 0.  1.
       -6    1    1    2    0  504 -0.44508542360E+02 -0.27611362190E+02  0.98996362399E+02  0.20608900367E+03  0.17300000000E+03 0. -1.
</event>
<event>
 6   0  0.4500850E-05  0.4631945E+03  0.7546771E-02  0.1028600E+00
        2   -1    0    0  502    0  0.00000000000E+00  0.00000000000E+00  0.15886884116E+04  0.15886884116E+04  0.00000000000E+00 0. -1.
       -2   -1    0    0    0  501  0.00000000000E+00  0.00000000000E+00 -0.16249519790E+03  0.16249519790E+03  0.00000000000E+00 0.  1.
        6    1    1    2  502    0  0.66979662402E+02 -0.59310684619E+02  0.10715769877E+03  0.22229665965E+03  0.17300000000E+03 0.  1.
       -6    1    1    2    0  503  0.84040640129E+02  0.17998319275E+03  0.56964881751E+03  0.62760302274E+03  0.17300000000E+03 0.  1.
        6    1    1    2  503    0 -0.65695580045E+02 -0.44990888608E+02  0.63843921332E+03  0.66623848463E+03  0.17300000000E+03 0. -1.
       -6    1    1    2    0  501 -0.85324722486E+02 -0.75681619520E+02  0.11094748409E+03  0.23504544247E+03  0.17300000000E+03 0. -1.
</event>
<event>
 6   0  0.4500850E-05  0.2938070E+03  0.7546771E-02  0.1096545E+00
       21   -1    0    0  501  503  0.00000000000E+00  0.00000000000E+00  0.10771613527E+04  0.10771613527E+04  0.00000000000E+00 0.  1.
       21   -1    0    0  502  504  0.00000000000E+00  0.00000000000E+00 -0.32906249834E+03  0.32906249834E+03  0.00000000000E+00 0. -1.
        6    1    1    2  501    0 -0.16403394174E+03  0.34492129609E+02  0.81048542105E+02  0.25415488825E+03  0.17300000000E+03 0. -1.
       -6    1    1    2    0  504  0.15266001552E+03  0.54127971649E+02  0.46732354330E+03  0.52398016353E+03  0.17300000000E+03 0.  1.
        6    1    1    2  502    0 -0.19742349754E+03  0.75403290439E+02  0.13493470113E+03  0.30462775179E+03  0.17300000000E+03 0. -1.
       -6    1    1    2    0  503  0.20879742376E+03 -0.16402339170E+03  0.64792067868E+02  0.32346104750E+03  0.17300000000E+03 0.  1.
</event>
<event>
 6   0  0.4500850E-05  0.8757220E+03  0.7546771E-02  0.9468049E-01
        2   -1    0    0  503    0  0.00000000000E+00  0.00000000000E+00  0.30428058178E+04  0.30428058178E+04  0.00000000000E+00 0.  1.
       -2   -1    0    0    0  501  0.00000000000E+00  0.00000000000E+00 -0.38306812622E+03  0.38306812622E+03  0.00000000000E+00 0. -1.
        6    1    1    2  502    0 -0.22150251387E+03  0.71541445388E+02 -0.66908258773E+02  0.29763611533E+03  0.17300000000E+03 0. -1.
       -6    1    1    2    0  502 -0.23707372420E+03  0.78188216633E+02  0.10582129973E+04  0.11009364630E+04  0.17300000000E+03 0.  1.
        6    1    1    2  503    0  0.11764297622E+03 -0.48302095927E+03  0.12937015652E+04  0.13966896064E+04  0.17300000000E+03 0.  1.
       -6    1    1    2    0  501  0.34093326185E+03  0.33329129725E+03  0.37473138789E+03  0.63061175927E+03  0.17300000000E+03 0. -1.
</event>
<event>
 6   0  0.4500850E-05  0.3719034E+03  0.7546771E-02  0.1075765E+00
       21   -1    0    0  504  503  0.00000000000E+00  0.00000000000E+00  0.41045352386E+03  0.41045352386E+03  0.00000000000E+00 0.  1.
       21   -1    0    0  502  504  0.00000000000E+00  0.00000000000E+00 -0.15443390925E+04  0.15443390925E+04  0.00000000000E+00 0. -1.
        6    1    1    2  501    0 -0.12929337434E+03 -0.26786194466E+03 -0.15158199071E+03  0.37599587491E+03  0.17300000000E+03 0.  1.
       -6    1    1    2    0  503  0.24777899716E+02  0.10368726136E+03  0.85772106861E+02  0.22056936958E+03  0.17300000000E+03 0.  1.
        6    1    1    2  502    0 -0.15337147184E+03 -0.22461985839E+03 -0.56597438629E+03  0.65133163219E+03  0.17300000000E+03 0.  1.
       -6    1    1    2    0  501  0.25788694647E+03  0.38879454169E+03 -0.50210129854E+03  0.70689573970E+03  0.17300000000E+03 0. -1.
</event>
<event>
 6   0  0.4500850E-05  0.6359978E+03  0.7546771E-02  0.9840845E-01
       21   -1    0    0  501  503  0.00000000000E+00  0.00000000000E+00  0.24524032047E+03  0.24524032047E+03  0.00000000000E+00 0. -1.
       21   -1    0    0  502  504  0.00000000000E+00  0.00000000000E+00 -0.18339602822E+04  0.18339602822E+04  0.00000000000E+00 0. -1.
        6    1    1    2  501    0  0.43154001513E+02  0.34947391329E+03 -0.17041860470E+03  0.42774499967E+03  0.17300000000E+03 0. -1.
       -6    1    1    2    0  503 -0.28171511205E+02 -0.13040932847E+03 -0.29097345187E+03  0.36386093043E+03  0.17300000000E+03 0.  1.
        6    1    1    2  502    0 -0.44961445954E+02 -0.34556265256E+03 -0.85809341003E+03  0.94217215985E+03  0.17300000000E+03 0. -1.
       -6    1    1    2    0  504  0.29978955646E+02  0.12649806774E+03 -0.26923449511E+03  0.34542251270E+03  0.17300000000E+03 0. -1.
</event>
<event>
 6   0  0.4500850E-05  0.2538718E+03  0.7546771E-02  0.1123740E+00
       21   -1    0    0  501  503  0.00000000000E+00  0.00000000000E+00  0.11942232654E+04  0.11942232654E+04  0.00000000000E+00 0. -1.
       21   -1    0    0  502  504  0.00000000000E+00  0.00000000000E+00 -0.42810438016E+03  0.42810438016E+03  0.00000000000E+00 0.  1.
        6    1    1    2  501    0 -0.36436346497E+02  0.34325172718E+02  0.46460960282E+03  0.49829399741E+03  0.17300000000E+03 0.  1.
       -6    1    1    2    0  503  0.15231548732E+03  0.16631988837E+03  0.25394358444E+03  0.38115437427E+03  0.17300000000E+03 0. -1.
        6    1    1    2  502    0  0.65491864251E+02 -0.16993884112E+03 -0.24877894817E+03  0.35353692744E+03  0.17300000000E+03 0.  1.
       -6    1    1    2    0  504 -0.18137100507E+03 -0.30706219969E+02  0.29634464618E+03  0.38934234646E+03  0.17300000000E+03 0. -1.
</event>
<event>
 6   0  0.4500850E-05  0.2706284E+03  0.7546771E-02  0.1106463E+00
       21   -1    0    0  501  503  0.00000000000E+00  0.00000000000E+00  0.66673134198E+03  0.66673134198E+03  0.00000000000E+00 0. -1.
       21   -1    0    0  503  504  0.00000000000E+00  0.00000000000E+00 -0.16441059694E+04  0.16441059694E+04  0.00000000000E+00 0.  1.
        6    1    1    2  501    0 -0.10955726384E+03 -0.43007650513E+02  0.41099563071E+03  0.46119286695E+03  0.17300000000E+03 0. -1.
       -6    1    1    2    0  504  0.49834239320E+02 -0.18934661593E+02 -0.30077161144E+03  0.35104776750E+03  0.17300000000E+03 0. -1.
        6    1    1    2  502    0  0.11333631298E+03  0.30043578520E+03 -0.11379030995E+04  0.11949306443E+04  0.17300000000E+03 0.  1.
       -6    1    1    2    0  502 -0.53613288453E+02 -0.23849347309E+03  0.50304452776E+02  0.30366603264E+03  0.17300000000E+03 0.  1.
</event>
<event>
 6   0  0.4500850E-05  0.4627723E+03  0.7546771E-02  0.1042401E+00
       21   -1    0    0  502  503  0.00000000000E+00  0.00000000000E+00  0.31206818615E+03  0.31206818615E+03  0.00000000000E+00 0. -1.
       21   -1    0    0  501  504  0.00000000000E+00  0.00000000000E+00 -0.14773371163E+04  0.14773371163E+04  0.00000000000E+00 0.  1.
        6    1    1    2  501    0  0.29982219523E+03 -0.23607898188E+03 -0.42997134550E+03  0.60035905289E+03  0.17300000000E+03 0. -1.
       -6    1    1    2    0  504 -0.64782363036E+02  0.22394140226E+02 -0.26561372448E+03  0.32431142858E+03  0.17300000000E+03 0.  1.
        6    1    1    2  502    0 -0.38732009792E+02  0.15207633267E+03 -0.53873785420E+03  0.58719234931E+03  0.17300000000E+03 0.  1.
       -6    1    1    2    0  503 -0.19630782240E+03  0.61608508981E+02  0.69053993986E+02  0.27754247171E+03  0.17300000000E+03 0. -1.
</event>
<event>
 6   0  0.4500850E-05  0.2701845E+03  0.7546771E-02  0.1107511E+00
       21   -1    0    0  504  503  0.00000000000E+00  0.00000000000E+00  0.36455925702E+03  0.36455925702E+03  0.00000000000E+00 0.  1.
       21   -1    0    0  502  504  0.00000000000E+00  0.00000000000E+00 -0.12157873930E+04  0.12157873930E+04  0.00000000000E+00 0. -1.
        6    1    1    2  501    0 -0.70895859870E+02 -0.33333165783E+03 -0.26950992171E+03  0.46765458937E+03  0.17300000000E+03 0. -1.
       -6    1    1    2    0  501 -0.15433403532E+02  0.25274027222E+03  0.73293095389E+02  0.31530415947E+03  0.17300000000E+03 0.  1.
        6    1    1    2  502    0  0.12051986492E+03  0.38099431795E+02 -0.54412015284E+03  0.58478401592E+03  0.17300000000E+03 0. -1.
       -6    1    1    2    0  503 -0.34190601516E+02  0.42491953813E+02 -0.11089115683E+03  0.21260388528E+03  0.17300000000E+03 0. -1.
</event>
<event>
 6   0  0.4500850E-05  0.2784001E+03  0.7546771E-02  0.1108546E+00
       21   -1    0    0  501  503  0.00000000000E+00  0.00000000000E+00  0.38266114073E+03  0.38266114073E+03  0.00000000000E+00 0.  1.
       21   -1    0    0  502  504  0.00000000000E+00  0.00000000000E+00 -0.10932372979E+04  0.10932372979E+04  0.00000000000E+00 0. -1.
        6    1    1    2  501    0  0.84927437269E+02  0.67849647703E+02  0.14377950928E+03  0.24983552907E+03  0.17300000000E+03 0. -1.
       -6    1    1    2    0  503  0.76474353282E+02  0.98698239972E+02 -0.87279947643E+02  0.23051346716E+03  0.17300000000E+03 0.  1.
        6    1    1    2  502    0 -0.24292349524E+03  0.53126688023E+02 -0.56490789937E+03  0.64100249944E+03  0.17300000000E+03 0. -1.
       -6    1    1    2    0  504  0.81521704690E+02 -0.21967457570E+03 -0.20216781943E+03  0.35454694295E+03  0.17300000000E+03 0.  1.
</event>
<event>
 6   0  0.4500850E-05  0.3580965E+03  0.7546771E-02  0.1078997E+00
       21   -1    0    0  501  503  0.00000000000E+00  0.00000000000E+00  0.19817134637E+04  0.19817134637E+04  0.00000000000E+00 0.  1.
       21   -1    0    0  503  504  0.00000000000E+00  0.00000000000E+00 -0.10959405386E+04  0.10959405386E+04  0.00000000000E+00 0. -1.
        6    1    1    2  501    0  0.47050447858E+02 -0.36683623341E+02  0.95012094140E+03  0.96758371015E+03  0.17300000000E+03 0.  1.
       -6    1    1    2    0  502  0.35514433179E+03  0.32229976198E+02  0.33662589524E+03  0.52001178940E+03  0.17300000000E+03 0.  1.
        6    1    1    2  502    0 -0.10137446223E+03  0.27042965181E+03  0.49178830583E+03  0.59598130501E+03  0.17300000000E+03 0.  1.
       -6    1    1    2    0  504 -0.30082031742E+03 -0.26597600466E+03 -0.89276221737E+03  0.99407719780E+03  0.17300000000E+03 0. -1.
</event>
<event>
 6   0  0.4500850E-05  0.5168067E+03  0.7546771E-02  0.1028331E+00
       21   -1    0    0  502  503  0.00000000000E+00  0.00000000000E+00  0.32511729826E+03  0.32511729826E+03  0.00000000000E+00 0.  1.
       21   -1    0    0  501  504  0.00000000000E+00  0.00000000000E+00 -0.12943534389E+04  0.12943534389E+04  0.00000000000E+00 0.  1.
        6    1    1    2  501    0  0.16194782447E+03 -0.21455610305E+03 -0.46061535711E+03  0.56067541984E+03  0.17300000000E+03 0.  1.
       -6    1    1    2    0  504  0.16499029984E+03  0.16720663814E+03 -0.20131999643E+02  0.29242803608E+03  0.17300000000E+03 0. -1.
        6    1    1    2  502    0 -0.37097637436E+03  0.44048475028E+02 -0.33011853733E+03  0.52770350309E+03  0.17300000000E+03 0.  1.
       -6    1    1    2    0  503  0.44038250049E+02  0.33009898823E+01 -0.15837024653E+03  0.23866377812E+03  0.17300000000E+03 0. -1.
</event>
<event>
 6   0  0.4500850E-05  0.2116654E+03  0.7546771E-02  0.1140889E+00
       21   -1    0    0  502  503  0.00000000000E+00  0.00000000000E+00  0.10938716193E+04  0.10938716193E+04  0.00000000000E+00 0.  1.
       21   -1    0    0  501  504  0.00000000000E+00  0.00000000000E+00 -0.92781757866E+03  0.92781757866E+03  0.00000000000E+00 0.  1.
        6    1    1    2  501    0 -0.74418733702E+02  0.59033653043E+02 -0.25021864736E+03  0.31868713749E+03  0.17300000000E+03 0.  1.
       -6    1    1    2    0  503  0.20400559498E+03  0.62401815893E+01 -0.53015905850E+03  0.59384749723E+03  0.17300000000E+03 0.  1.
        6    1    1    2  502    0  0.26269474673E+02 -0.88111893238E+02  0.82026160971E+03  0.84333380070E+03  0.17300000000E+03 0.  1.
       -6    1    1    2    0  504 -0.15585633595E+03  0.22838058606E+02  0.12617013680E+03  0.26582076254E+03  0.17300000000E+03 0. -1.
</event>
<event>
 6   0  0.4500850E-05  0.2572552E+03  0.7546771E-02  0.1120957E+00
       21   -1    0    0  502  503  0.00000000000E+00  0.00000000000E+00  0.36939625429E+03  0.36939625429E+03  0.00000000000E+00 0.  1.
       21   -1    0    0  501  504  0.00000000000E+00  0.00000000000E+00 -0.11071347426E+04  0.11071347426E+04  0.00000000000E+00 0.  1.
        6    1    1    2  501    0 -0.47657923820E+02 -0.58642380617E+02 -0.10755694704E+03  0.21727333790E+03  0.17300000000E+03 0. -1.
       -6    1    1    2    0  504  0.19252623833E+03 -0.15991791342E+02 -0.57226566592E+03  0.62828264517E+03  0.17300000000E+03 0.  1.
        6    1    1    2  502    0 -0.37421045478E+02  0.20476097118E+03 -0.21248130189E+03  0.34409983088E+03  0.17300000000E+03 0. -1.
       -6    1    1    2    0  503 -0.10744726903E+03 -0.13012679922E+03  0.15456542654E+03  0.28687518292E+03  0.17300000000E+03 0.  1.
</event>
<event>
 6   0  0.4500850E-05  0.2315138E+03  0.7546771E-02  0.1132047E+00
       21   -1    0    0  504  503  0.00000000000E+00  0.00000000000E+00  0.26043601566E+03  0.26043601566E+03  0.00000000000E+00 0. -1.
       21   -1    0    0  501  504  0.00000000000E+00  0.00000000000E+00 -0.22584527568E+04  0.22584527568E+04  0.00000000000E+00 0. -1.
        6    1    1    2  501    0 -0.19257405222E+03  0.33594260176E+02 -0.15177951217E+04  0.15400793393E+04  0.17300000000E+03 0. -1.
       -6    1    1    2    0  502  0.13039563219E+03  0.10660226108E+03 -0.44943745296E+03  0.51018632585E+03  0.17300000000E+03 0. -1.
        6    1    1    2  502    0  0.14898396301E+03 -0.11455945187E+03 -0.79250500400E+02  0.26745042729E+03  0.17300000000E+03 0. -1.
       -6    1    1    2    0  503 -0.86805542988E+02 -0.25637069392E+02  0.48466334003E+02  0.20117267993E+03  0.17300000000E+03 0. -1.
</event>
<event>
 6   0  0.4500850E-05  0.2086323E+03  0.7546771E-02  0.1145419E+00
       21   -1    0    0  504  503  0.00000000000E+00  0.00000000000E+00  0.71776381391E+03  0.71776381391E+03  0.00000000000E+00 0.  1.
       21   -1    0    0  501  504  0.00000000000E+00  0.00000000000E+00 -0.26008780871E+03  0.26008780871E+03  0.00000000000E+00 0.  1.
        6    1    1    2  501    0  0.11823564083E+03  0.58446551472E+02  0.11706735406E+03  0.24704135591E+03  0.17300000000E+03 0.  1.
       -6    1    1    2    0  502 -0.85684454770E+02 -0.11871845163E+03  0.62428605977E+02  0.23507919387E+03  0.17300000000E+03 0.  1.
        6    1    1    2  502    0  0.73557584035E+02  0.12712521593E+02  0.69636419026E+02  0.20087448128E+03  0.17300000000E+03 0.  1.
       -6    1    1    2    0  503 -0.10610877010E+03  0.47559378562E+02  0.20854362614E+03  0.29485659156E+03  0.17300000000E+03 0.  1.
</event>
<event>
 6   0  0.4500850E-05  0.2556906E+03  0.7546771E-02  0.1117722E+00
       21   -1    0    0  501  503  0.00000000000E+00  0.00000000000E+00  0.32778747758E+03  0.32778747758E+03  0.00000000000E+00 0.  1.
       21   -1    0    0  502  504  0.00000000000E+00  0.00000000000E+00 -0.13868255513E+04  0.13868255513E+04  0.00000000000E+00 0.  1.
        6    1    1    2  501    0 -0.17997093505E+03 -0.21560740432E+01  0.13452540745E+03  0.28358468112E+03  0.17300000000E+03 0.  1.
       -6    1    1    2    0  504  0.22714713783E+02 -0.17980443824E+03 -0.32018002735E+03  0.40655853717E+03  0.17300000000E+03 0. -1.
        6    1    1    2  502    0  0.21522195644E+03  0.12749704996E+03 -0.33043407969E+03  0.44910095669E+03  0.17300000000E+03 0.  1.
       -6    1    1    2    0  503 -0.57965735176E+02  0.54463462328E+02 -0.54294937415E+03  0.57536885393E+03  0.17300000000E+03 0.  1.
</event>
<event>
 6   0  0.4500850E-05  0.4663461E+03  0.7546771E-02  0.1023521E+00
       21   -1    0    0  501  503  0.00000000000E+00  0.00000000000E+00  0.13544720384E+04  0.13544720384E+04  0.00000000000E+00 0. -1.
       21   -1    0    0  503  504  0.00000000000E+00  0.00000000000E+00 -0.23657022651E+03  0.23657022651E+03  0.00000000000E+00 0. -1.
        6    1    1    2  501    0 -0.83417094592E+02 -0.17378351444E+03  0.47012778374E+03  0.53675716540E+03  0.17300000000E+03 0. -1.
       -6    1    1    2    0  502 -0.43154739454E+01 -0.98204497533E+02  0.55080403770E+03  0.58564224113E+03  0.17300000000E+03 0. -1.
        6    1    1    2  502    0  0.57810483948E+02  0.99819986427E+02  0.77760534265E+02  0.22199500543E+03  0.17300000000E+03 0. -1.
       -6    1    1    2    0  504  0.29922084589E+02  0.17216802555E+03  0.19209456207E+02  0.24664785297E+03  0.17300000000E+03 0. -1.
</event>
<event>
 6   0  0.4500850E-05  0.5337834E+03  0.7546771E-02  0.1028408E+00
       21   -1    0    0  501  503  0.00000000000E+00  0.00000000000E+00  0.12053492383E+04  0.12053492383E+04  0.00000000000E+00 0. -1.
       21   -1    0    0  502  504  0.00000000000E+00  0.00000000000E+00 -0.55087876506E+03  0.55087876506E+03  0.00000000000E+00 0.  1.
        6    1    1    2  501    0  0.16690816371E+03 -0.54039258420E+02  0.29905242664E+02  0.24819730075E+03  0.17300000000E+03 0.  1.
       -6    1    1    2    0  503 -0.49453891190E+03 -0.52225807795E+02  0.68051342806E+03  0.86042070881E+03  0.17300000000E+03 0.  1.
        6    1    1    2  502    0  0.12459936590E+03  0.11077607000E+03 -0.22713606710E+03  0.33062990282E+03  0.17300000000E+03 0. -1.
       -6    1    1    2    0  504  0.20303138230E+03 -0.45110037809E+01  0.17118786957E+03  0.31698009092E+03  0.17300000000E+03 0. -1.
</event>
<event>
 6   0  0.4500850E-05  0.2443032E+03  0.7546771E-02  0.1120309E+00
       21   -1    0    0  502  503  0.00000000000E+00  0.00000000000E+00  0.42726966995E+03  0.42726966995E+03  0.00000000000E+00 0. -1.
       21   -1    0    0  501  504  0.00000000000E+00  0.00000000000E+00 -0.12043324203E+04  0.12043324203E+04  0.00000000000E+00 0. -1.
        6    1    1    2  501    0 -0.72276231371E+02  0.16190807886E+02 -0.25540755876E+03  0.31725071624E+03  0.17300000000E+03 0. -1.
       -6    1    1    2    0  503 -0.82738654357E+02 -0.26209119504E+03 -0.54235134262E+03  0.63214828821E+03  0.17300000000E+03 0. -1.
        6    1    1    2  502    0  0.14365947536E+03  0.13748776501E+03 -0.23616005864E+03  0.35389476357E+03  0.17300000000E+03 0.  1.
       -6    1    1    2    0  504  0.11355410368E+02  0.10841262214E+03  0.25685620969E+03  0.32830832222E+03  0.17300000000E+03 0. -1.
</event>
<event>
 6   0  0.4500850E-05  0.2367690E+03  0.7546771E-02  0.1128825E+00
       21   -1    0    0  502  503  0.00000000000E+00  0.00000000000E+00  0.35830770530E+03  0.35830770530E+03  0.00000000000E+00 0. -1.
       21   -1    0    0  503  504  0.00000000000E+00  0.00000000000E+00 -0.14013210153E+04  0.14013210153E+04  0.00000000000E+00 0.  1.
        6    1    1    2  501    0  0.23792984119E+03  0.67800381412E+02 -0.81593168879E+03  0.86998909293E+03  0.17300000000E+03 0.  1.
       -6    1    1    2    0  504 -0.26995649172E+02  0.22848019966E+02 -0.33393397856E+03  0.37774554812E+03  0.17300000000E+03 0.  1.
        6    1    1    2  502    0 -0.98258941902E+02 -0.11934804350E+03 -0.65882204839E+02  0.24118092807E+03  0.17300000000E+03 0. -1.
       -6    1    1    2    0  501 -0.11267525012E+03  0.28699642121E+02  0.17273456215E+03  0.27071315152E+03  0.17300000000E+03 0. -1.
</event>
<event>
 6   0  0.4500850E-05  0.5011609E+03  0.7546771E-02  0.1040140E+00
       21   -1    0    0  501  503  0.00000000000E+00  0.00000000000E+00  0.16871709998E+04  0.16871709998E+04  0.00000000000E+00 0.  1.
       21   -1    0    0  502  504  0.00000000000E+00  0.00000000000E+00 -0.49346159529E+03  0.49346159529E+03  0.00000000000E+00 0. -1.
        6    1    1    2  501    0  0.51640061054E+01 -0.10951745835E+03  0.10719669709E+04  0.10913582947E+04  0.17300000000E+03 0.  1.
       -6    1    1    2    0  504  0.42270373996E+02 -0.15579827722E+03  0.19523218672E+03  0.30676455863E+03  0.17300000000E+03 0. -1.
        6    1    1    2  502    0  0.79616032394E+01 -0.18189186336E+03  0.98948476920E+02  0.26994043448E+03  0.17300000000E+03 0. -1.
       -6    1    1    2    0  503 -0.55395983341E+02  0.44720759893E+03 -0.17243823010E+03  0.51256930723E+03  0.17300000000E+03 0. -1.
</event>
<event>
 6   0  0.4500850E-05  0.5048244E+03  0.7546771E-02  0.1012527E+00
       -1   -1    0    0    0  501  0.00000000000E+00  0.00000000000E+00  0.90418001252E+03  0.90418001252E+03  0.00000000000E+00 0. -1.
        1   -1    0    0  502    0  0.00000000000E+00  0.00000000000E+00 -0.36036747236E+03  0.36036747236E+03  0.00000000000E+00 0.  1.
        6    1    1    2  502    0  0.52047103718E+02 -0.44188917531E+02  0.24552604411E+03  0.30801558366E+03  0.17300000000E+03 0. -1.
       -6    1    1    2    0  501  0.13237426686E+03  0.17925477969E+03  0.96284563404E+02  0.29808545707E+03  0.17300000000E+03 0.  1.
        6    1    1    2  503    0  0.57883003938E+02 -0.24172744287E+03  0.14997419266E+03  0.33794061201E+03  0.17300000000E+03 0. -1.
       -6    1    1    2    0  503 -0.24230437451E+03  0.10666158072E+03  0.52027739985E+02  0.32050583214E+03  0.17300000000E+03 0.  1.
</event>
<event>
 6   0  0.4500850E-05  0.2081723E+03  0.7546771E-02  0.1146365E+00
       21   -1    0    0  504  503  0.00000000000E+00  0.00000000000E+00  0.21777132931E+04  0.21777132931E+04  0.00000000000E+00 0. -1.
       21   -1    0    0  501  504  0.00000000000E+00  0.00000000000E+00 -0.22630655223E+03  0.22630655223E+03  0.00000000000E+00 0. -1.
        6    1    1    2  501    0  0.12341851659E+03 -0.11209860683E+03 -0.33907603398E+02  0.24264573654E+03  0.17300000000E+03 0. -1.
       -6    1    1    2    0  503 -0.86918925397E+02 -0.57003110258E+01  0.15666883978E+04  0.15786161436E+04  0.17300000000E+03 0. -1.
        6    1    1    2  502    0  0.68028425965E+01  0.13739331621E+03  0.27581009207E+03  0.35344505782E+03  0.17300000000E+03 0. -1.
       -6    1    1    2    0  502 -0.43302433793E+02 -0.19594398360E+02  0.14281585446E+03  0.22931290741E+03  0.17300000000E+03 0. -1.
</event>
<event>
 6   0  0.4500850E-05  0.2053829E+03  0.7546771E-02  0.1146470E+00
       21   -1    0    0  501  503  0.00000000000E+00  0.00000000000E+00  0.44469674558E+03  0.44469674558E+03  0.00000000000E+00 0. -1.
       21   -1    0    0  502  504  0.00000000000E+00  0.00000000000E+00 -0.62172567044E+03  0.62172567044E+03  0.00000000000E+00 0. -1.
        6    1    1    2  501    0 -0.15624613250E+03 -0.88494819791E+02  0.17803961152E+03  0.30638422009E+03  0.17300000000E+03 0. -1.
       -6    1    1    2    0  503 -0.55847264721E+02  0.70643237458E+02 -0.74709308698E+02  0.20885369229E+03  0.17300000000E+03 0. -1.
        6    1    1    2  502    0  0.14923999864E+03 -0.28914294655E+02 -0.27833861771E+03  0.36126167765E+03  0.17300000000E+03 0. -1.
       -6    1    1    2    0  504  0.62853398575E+02  0.46765876987E+02 -0.20206099734E+01  0.18992282598E+03  0.17300000000E+03 0. -1.
</event>
<event>
 6   0  0.4500850E-05  0.2441981E+03  0.7546771E-02  0.1125098E+00
       21   -1    0    0  502  503  0.00000000000E+00  0.00000000000E+00  0.62584725035E+03  0.62584725035E+03  0.00000000000E+00 0. -1.
       21   -1    0    0  503  504  0.00000000000E+00  0.00000000000E+00 -0.54095543186E+03  0.54095543186E+03  0.00000000000E+00 0. -1.
        6    1    1    2  501    0 -0.22958433165E+03 -0.95806310942E+02  0.14803596804E+03  0.33724095598E+03  0.17300000000E+03 0. -1.
       -6    1    1    2    0  501  0.11549788852E+03  0.12737751154E+03  0.71218811687E+02  0.25409823265E+03  0.17300000000E+03 0. -1.
        6    1    1    2  502    0  0.12455624805E+03 -0.92121768894E+02  0.12028926342E+03  0.26153238065E+03  0.17300000000E+03 0. -1.
       -6    1    1    2    0  504 -0.10469804912E+02  0.60550568292E+02 -0.25465222467E+03  0.31393111293E+03  0.17300000000E+03 0. -1.
</event>
<event>
 6   0  0.4500850E-05  0.3622496E+03  0.7546771E-02  0.1082282E+00
       21   -1    0    0  502  503  0.00000000000E+00  0.00000000000E+00  0.76313460043E+03  0.76313460043E+03  0.00000000000E+00 0.  1.
       21   -1    0    0  503  504  0.00000000000E+00  0.00000000000E+00 -0.11594763685E+04  0.11594763685E+04  0.00000000000E+00 0. -1.
        6    1    1    2  501    0 -0.14683413472E+02 -0.62210309565E+02 -0.88027326704E+02  0.20436128668E+03  0.17300000000E+03 0.  1.
       -6    1    1    2    0  504 -0.54334016547E+02  0.19801826898E+03 -0.43153894839E+03  0.50825021808E+03  0.17300000000E+03 0. -1.
        6    1    1    2  502    0 -0.15552684964E+03 -0.28752545951E+03  0.55789009045E+03  0.66935031474E+03  0.17300000000E+03 0.  1.
       -6    1    1    2    0  501  0.22454427966E+03  0.15171750010E+03 -0.43466558343E+03  0.54064914943E+03  0.17300000000E+03 0. -1.
</event>
<event>
 6   0  0.4500850E-05  0.4131287E+03  0.7546771E-02  0.1049293E+00
       21   -1    0    0  502  503  0.00000000000E+00  0.00000000000E+00  0.63562137013E+03  0.63562137013E+03  0.00000000000E+00 0.  1.
       21   -1    0    0  501  504  0.00000000000E+00  0.00000000000E+00 -0.54611373775E+03  0.54611373775E+03  0.00000000000E+00 0.  1.
        6    1    1    2  501    0  0.31272660792E+02  0.30281872683E+03  0.16058671708E+03  0.38521974811E+03  0.17300000000E+03 0.  1.
       -6    1    1    2    0  504  0.81934492255E+02 -0.22467378062E+03 -0.40072115401E+02  0.29786967478E+03  0.17300000000E+03 0.  1.
        6    1    1    2  502    0  0.89450020719E+02 -0.11824435102E+03 -0.23939703888E+02  0.22909636003E+03  0.17300000000E+03 0. -1.
       -6    1    1    2    0  503 -0.20265717377E+03  0.40099404817E+02 -0.70672654070E+01  0.26954932496E+03  0.17300000000E+03 0.  1.
</event>
<event>
 6   0  0.4500850E-05  0.3278004E+03  0.7546771E-02  0.1072446E+00
       21   -1    0    0  501  503  0.00000000000E+00  0.00000000000E+00  0.37034733224E+03  0.37034733224E+03  0.00000000000E+00 0.  1.
       21   -1    0    0  502  504  0.00000000000E+00  0.00000000000E+00 -0.13555808590E+04  0.13555808590E+04  0.00000000000E+00 0. -1.
        6    1    1    2  501    0 -0.31583341563E+02  0.99469482451E+02 -0.40258423795E+03  0.45043840206E+03  0.17300000000E+03 0. -1.
       -6    1    1    2    0  504  0.54653376471E+02  0.12115579306E+03 -0.53540623094E+03  0.57814751567E+03  0.17300000000E+03 0.  1.
        6    1    1    2  502    0 -0.17531178038E+03 -0.92188080713E+02 -0.25134875751E+03  0.36378298540E+03  0.17300000000E+03 0. -1.
       -6    1    1    2    0  503  0.15224174548E+03 -0.12843719479E+03  0.20410569962E+03  0.33355928812E+03  0.17300000000E+03 0.  1.
</event>
<event>
 6   0  0.4500850E-05  0.5142608E+03  0.7546771E-02  0.1010122E+00
        2   -1    0    0  503    0  0.00000000000E+00  0.00000000000E+00  0.18208136349E+04  0.18208136349E+04  0.00000000000E+00 0.  1.
       -2   -1    0    0    0  501  0.00000000000E+00  0.00000000000E+00 -0.15933581257E+03  0.15933581257E+03  0.00000000000E+00 0. -1.
        6    1    1    2  502    0  0.81154672492E+02 -0.44236680942E+02  0.22137226448E+03  0.29576619869E+03  0.17300000000E+03 0.  1.
       -6    1    1    2    0  502 -0.26078729670E+02 -0.14943364192E+03  0.36206159707E+03  0.42898498057E+03  0.17300000000E+03 0.  1.
        6    1    1    2  503    0  0.94514206119E+02 -0.11893785062E+03  0.58310163358E+03  0.62690961275E+03  0.17300000000E+03 0.  1.
       -6    1    1    2    0  501 -0.14959014894E+03  0.31260817348E+03  0.49494232718E+03  0.62848865545E+03  0.17300000000E+03 0. -1.
</event>
<event>
 6   0  0.4500850E-05  0.3355443E+03  0.7546771E-02  0.1083410E+00
       21   -1    0    0  501  503  0.00000000000E+00  0.00000000000E+00  0.35530758955E+03  0.35530758955E+03  0.00000000000E+00 0. -1.
       21   -1    0    0  502  504  0.00000000000E+00  0.00000000000E+00 -0.21943063803E+04  0.21943063803E+04  0.00000000000E+00 0. -1.
        6    1    1    2  501    0 -0.60228565143E+02 -0.78586891659E+02  0.62634100361E+02  0.20893877124E+03  0.17300000000E+03 0. -1.
       -6    1    1    2    0  504  0.33696977955E+03  0.45262017017E+02 -0.17953229445E+03  0.42161371808E+03  0.17300000000E+03 0. -1.
        6    1    1    2  502    0  0.19214404576E+03 -0.14503943305E+03 -0.43050781766E+03  0.52270618183E+03  0.17300000000E+03 0.  1.
       -6    1    1    2    0  503 -0.46888526017E+03  0.17836430770E+03 -0.12915927790E+04  0.13963552987E+04  0.17300000000E+03 0. -1.
</event>
<event>
 6   0  0.4500850E-05  0.4423863E+03  0.7546771E-02  0.1054118E+00
       21   -1    0    0  504  503  0.00000000000E+00  0.00000000000E+00  0.17133493114E+04  0.17133493114E+04  0.00000000000E+00 0. -1.
       21   -1    0    0  502  504  0.00000000000E+00  0.00000000000E+00 -0.25548061065E+03  0.25548061065E+03  0.00000000000E+00 0.  1.
        6    1    1    2  501    0 -0.77837933026E+02 -0.53578493827E+02  0.23274303845E+03  0.30500446024E+03  0.17300000000E+03 0.  1.
       -6    1    1    2    0  503  0.22067520464E+03  0.24081777544E+03  0.10138059040E+04  0.10790839439E+04  0.17300000000E+03 0. -1.
        6    1    1    2  502    0  0.75250848358E+02  0.67936141318E+01  0.75398384081E+01  0.18893039071E+03  0.17300000000E+03 0.  1.
       -6    1    1    2    0  501 -0.21808811998E+03 -0.19403289574E+03  0.20377991990E+03  0.39581112726E+03  0.17300000000E+03 0.  1.
</event>
<event>
 6   0  0.4500850E-05  0.3860021E+03  0.7546771E-02  0.1062422E+00
       21   -1    0    0  504  503  0.00000000000E+00  0.00000000000E+00  0.87812101972E+03  0.87812101972E+03  0.00000000000E+00 0.  1.
       21   -1    0    0  501  504  0.00000000000E+00  0.00000000000E+00 -0.76310395521E+03  0.76310395521E+03  0.00000000000E+00 0. -1.
        6    1    1    2  501    0 -0.14395572775E+03  0.14429504073E+03 -0.30519356547E+03  0.40572949453E+03  0.17300000000E+03 0.  1.
       -6    1    1    2    0  503 -0.18506409230E+03  0.68098509443E+02  0.14404025380E+02  0.26272152785E+03  0.17300000000E+03 0. -1.
        6    1    1    2  502    0  0.27916240886E+02 -0.41259518973E+03  0.34862505295E+03  0.56787545698E+03  0.17300000000E+03 0.  1.
       -6    1    1    2    0  502  0.30110357917E+03  0.20020163955E+03  0.57181551645E+02  0.40489849557E+03  0.17300000000E+03 0. -1.
</event>
<event>
 6   0  0.4500850E-05  0.2914600E+03  0.7546771E-02  0.1099013E+00
       21   -1    0    0  501  503  0.00000000000E+00  0.00000000000E+00  0.26518629584E+04  0.26518629584E+04  0.00000000000E+00 0. -1.
       21   -1    0    0  503  504  0.00000000000E+00  0.00000000000E+00 -0.49467557599E+03  0.49467557599E+03  0.00000000000E+00 0. -1.
        6    1    1    2  501    0 -0.23090661274E+03 -0.14025910765E+03  0.13519242093E+04  0.13894670017E+04  0.17300000000E+03 0. -1.
       -6    1    1    2    0  502  0.25001291359E+02 -0.71774745264E+02  0.96895705030E+03  0.98720992902E+03  0.17300000000E+03 0.  1.
        6    1    1    2  502    0  0.37332900912E+03  0.23910955075E+03  0.27940106449E+01  0.47590412144E+03  0.17300000000E+03 0. -1.
       -6    1    1    2    0  504 -0.16742368774E+03 -0.27075697841E+02 -0.16648788778E+03  0.29395748231E+03  0.17300000000E+03 0. -1.
</event>
<event>
 6   0  0.4500850E-05  0.2251979E+03  0.7546771E-02  0.1140482E+00
       21   -1    0    0  501  503  0.00000000000E+00  0.00000000000E+00  0.41270753970E+03  0.41270753970E+03  0.00000000000E+00 0. -1.
       21   -1    0    0  502  504  0.00000000000E+00  0.00000000000E+00 -0.15295513558E+04  0.15295513558E+04  0.00000000000E+00 0. -1.
        6    1    1    2  501    0  0.67746230381E+01 -0.17400164745E+03 -0.18742312447E+03  0.30883473966E+03  0.17300000000E+03 0.  1.
       -6    1    1    2    0  504  0.12366991897E+03  0.79144036129E+02 -0.10960101022E+04  0.11192520589E+04  0.17300000000E+03 0. -1.
        6    1    1    2  502    0 -0.10229222121E+03  0.92540943164E+02 -0.58514247098E+02  0.22886773865E+03  0.17300000000E+03 0.  1.
       -6    1    1    2    0  503 -0.28152320799E+02  0.23166681609E+01  0.22510365769E+03  0.28530435823E+03  0.17300000000E+03 0. -1.
</event>
<event>
 6   0  0.4500850E-05  0.2749149E+03  0.7546771E-02  0.1109295E+00
       21   -1    0    0  502  503  0.00000000000E+00  0.00000000000E+00  0.61876569040E+03  0.61876569040E+03  0.00000000000E+00 0. -1.
       21   -1    0    0  501  504  0.00000000000E+00  0.00000000000E+00 -0.83840994581E+03  0.83840994581E+03  0.00000000000E+00 0. -1.
        6    1    1    2  501    0 -0.20771410161E+03 -0.15019545750E+03 -0.44187677384E+03  0.53934025135E+03  0.17300000000E+03 0. -1.
       -6    1    1    2    0  503 -0.10837087365E+03 -0.14940594368E+03  0.13959956808E+03  0.28893497827E+03  0.17300000000E+03 0. -1.
        6    1    1    2  502    0  0.24388921861E+03  0.28158201900E+03  0.13684773745E+03  0.43292803978E+03  0.17300000000E+03 0. -1.
       -6    1    1    2    0  504  0.72195756644E+02  0.18019382182E+02 -0.54214787089E+02  0.19597236680E+03  0.17300000000E+03 0. -1.
</event>
<event>
 6   0  0.4500850E-05  0.2705159E+03  0.7546771E-02  0.1117241E+00
       21   -1    0    0  504  503  0.00000000000E+00  0.00000000000E+00  0.28250532225E+03  0.28250532225E+03  0.00000000000E+00 0. -1.
       21   -1    0    0  502  504  0.00000000000E+00  0.00000000000E+00 -0.30199531103E+04  0.30199531103E+04  0.00000000000E+00 0.  1.
        6    1    1    2  501    0 -0.16907654085E+03  0.12466867913E+03 -0.31931083264E+03  0.41954447209E+03  0.17300000000E+03 0. -1.
       -6    1    1    2    0  503  0.37872296861E+02 -0.23660850199E+02  0.14173235066E+03  0.22805965431E+03  0.17300000000E+03 0. -1.
        6    1    1    2  502    0  0.30436545760E+03 -0.19769499409E+02 -0.76481818100E+03  0.84137091397E+03  0.17300000000E+03 0.  1.
       -6    1    1    2    0  501 -0.17316121362E+03 -0.81238329526E+02 -0.17950511250E+04  0.18134833921E+04  0.17300000000E+03 0. -1.
</event>
<event>
 6   0  0.4500850E-05  0.1917859E+03  0.7546771E-02  0.1158420E+00
       21   -1    0    0  502  503  0.00000000000E+00  0.00000000000E+00  0.23737508793E+04  0.23737508793E+04  0.00000000000E+00 0. -1.
       21   -1    0    0  501  504  0.00000000000E+00  0.00000000000E+00 -0.71174230175E+02  0.71174230175E+02  0.00000000000E+00 0.  1.
        6    1    1    2  501    0 -0.60428349804E+02 -0.10652371070E+03  0.69926166464E+03  0.73068102619E+03  0.17300000000E+03 0. -1.
       -6    1    1    2    0  504 -0.56188877631E+02  0.40291637815E+02  0.41630484653E+03  0.45609136287E+03  0.17300000000E+03 0. -1.
        6    1    1    2  502    0  0.27742580394E+02  0.43240983814E+02  0.84482363519E+03  0.86388390888E+03  0.17300000000E+03 0. -1.
       -6    1    1    2    0  503  0.88874647041E+02  0.22991089069E+02  0.34218650274E+03  0.39426881150E+03  0.17300000000E+03 0.  1.
</event>
<event>
 6   0  0.4500850E-05  0.2582407E+03  0.7546771E-02  0.1110319E+00
       21   -1    0    0  502  503  0.00000000000E+00  0.00000000000E+00  0.56981198007E+03  0.56981198007E+03  0.00000000000E+00 0.  1.
       21   -1    0    0  501  504  0.00000000000E+00  0.00000000000E+00 -0.12122134245E+04  0.12122134245E+04  0.00000000000E+00 0. -1.
        6    1    1    2  501    0  0.17286399709E+03 -0.78024622716E+01 -0.26535659703E+03  0.36095146972E+03  0.17300000000E+03 0. -1.
       -6    1    1    2    0  503 -0.21778449886E+03  0.41400213221E+02 -0.66383310929E+03  0.72093513064E+03  0.17300000000E+03 0. -1.
        6    1    1    2  502    0  0.56576240650E+02 -0.21718255361E+03 -0.41042155267E+02  0.28632602241E+03  0.17300000000E+03 0.  1.
       -6    1    1    2    0  504 -0.11655738878E+02  0.18358480266E+03  0.32783041712E+03  0.41381278183E+03  0.17300000000E+03 0. -1.
</event>
<event>
 6   0  0.4500850E-05  0.2482429E+03  0.7546771E-02  0.1126759E+00
       21   -1    0    0  501  503  0.00000000000E+00  0.00000000000E+00  0.71586396735E+03  0.71586396735E+03  0.00000000000E+00 0.  1.
       21   -1    0    0  503  504  0.00000000000E+00  0.00000000000E+00 -0.51483011163E+03  0.51483011163E+03  0.00000000000E+00 0. -1.
        6    1    1    2  501    0  0.19341764341E+02 -0.57549675570E+02  0.42136334886E+03  0.45952381959E+03  0.17300000000E+03 0.  1.
       -6    1    1    2    0  502 -0.27050759966E+02  0.51038462774E+02  0.46715092070E+02  0.18827630792E+03  0.17300000000E+03 0. -1.
        6    1    1    2  502    0  0.18044160801E+03  0.13409356111E+02 -0.22121038753E+03  0.33406888554E+03  0.17300000000E+03 0. -1.
       -6    1    1    2    0  504 -0.17273261239E+03 -0.68981433158E+01 -0.45834197682E+02  0.24882506594E+03  0.17300000000E+03 0.  1.
</event>
<event>
 6   0  0.4500850E-05  0.6366382E+03  0.7546771E-02  0.9947889E-01
       21   -1    0    0  502  503  0.00000000000E+00  0.00000000000E+00  0.27224772627E+03  0.27224772627E+03  0.00000000000E+00 0. -1.
       21   -1    0    0  503  504  0.00000000000E+00  0.00000000000E+00 -0.30123840440E+04  0.30123840440E+04  0.00000000000E+00 0.  1.
        6    1    1    2  501    0  0.14150465066E+03 -0.49441780896E+03 -0.90226120274E+03  0.10528422550E+04  0.17300000000E+03 0.  1.
       -6    1    1    2    0  501 -0.40943596749E+03  0.34328269405E+03 -0.53664556243E+03  0.77678715179E+03  0.17300000000E+03 0. -1.
        6    1    1    2  502    0  0.20921028558E+03  0.29069645776E+03 -0.62566039181E+03  0.74138606679E+03  0.17300000000E+03 0.  1.
       -6    1    1    2    0  504  0.58721031249E+02 -0.13956134285E+03 -0.67556916076E+03  0.71361629669E+03  0.17300000000E+03 0.  1.
</event>
<event>
 6   0  0.4500850E-05  0.2438755E+03  0.7546771E-02  0.1119568E+00
       21   -1    0    0  502  503  0.00000000000E+00  0.00000000000E+00  0.60125354322E+03  0.60125354322E+03  0.00000000000E+00 0.  1.
       21   -1    0    0  503  504  0.00000000000E+00  0.00000000000E+00 -0.98391660286E+03  0.98391660286E+03  0.00000000000E+00 0.  1.
        6    1    1    2  501    0 -0.74621521661E+02  0.78958142307E+02 -0.47638951785E+03  0.51834229274E+03  0.17300000000E+03 0.  1.
       -6    1    1    2    0  504 -0.17418069470E+03 -0.54414170721E+02 -0.33249490380E+03  0.41687129601E+03  0.17300000000E+03 0.  1.
        6    1    1    2  502    0  0.12203893404E+03 -0.82731886142E+02  0.84846646474E+02  0.24262320545E+03  0.17300000000E+03 0.  1.
       -6    1    1    2    0  501  0.12676328232E+03  0.58187914556E+02  0.34137471553E+03  0.40733335188E+03  0.17300000000E+03 0. -1.
</event>
<event>
 6   0  0.4500850E-05  0.2158054E+03  0.7546771E-02  0.1140771E+00
       21   -1    0    0  502  503  0.00000000000E+00  0.00000000000E+00  0.60728102549E+03  0.60728102549E+03  0.00000000000E+00 0. -1.
       21   -1    0    0  501  504  0.00000000000E+00  0.00000000000E+00 -0.76893674528E+03  0.76893674528E+03  0.00000000000E+00 0.  1.
        6    1    1    2  501    0 -0.50434147629E+02  0.17546747795E+03 -0.22847899112E+03  0.33980007129E+03  0.17300000000E+03 0.  1.
       -6    1    1    2    0  503 -0.61250369296E+02 -0.87352402455E+02 -0.36426525309E+03  0.41713334147E+03  0.17300000000E+03 0. -1.
        6    1    1    2  502    0  0.10055655526E+03 -0.14862875718E+03  0.17664549797E+03  0.30550738161E+03  0.17300000000E+03 0. -1.
       -6    1    1    2    0  504  0.11127961666E+02  0.60513681682E+02  0.25444302646E+03  0.31377697640E+03  0.17300000000E+03 0. -1.
</event>
<event>
 6   0  0.4500850E-05  0.3165098E+03  0.7546771E-02  0.1087236E+00
       21   -1    0    0  501  503  0.00000000000E+00  0.00000000000E+00  0.29806379784E+03  0.29806379784E+03  0.00000000000E+00 0. -1.
       21   -1    0    0  503  504  0.00000000000E+00  0.00000000000E+00 -0.20412503196E+04  0.20412503196E+04  0.00000000000E+00 0.  1.
        6    1    1    2  501    0 -0.79113559558E+02  0.15413527157E+03 -0.88980005082E+01  0.24499961564E+03  0.17300000000E+03 0.  1.
       -6    1    1    2    0  502  0.24311787085E+03  0.49421583047E+02 -0.12517212459E+04  0.12877437126E+04  0.17300000000E+03 0.  1.
        6    1    1    2  502    0 -0.32708468512E+03 -0.15710026850E+03 -0.33186078834E+03  0.52127293086E+03  0.17300000000E+03 0.  1.
       -6    1    1    2    0  504  0.16308037383E+03 -0.46456586117E+02 -0.15070648700E+03  0.28529785829E+03  0.17300000000E+03 0. -1.
</event>
<event>
 6   0  0.4500850E-05  0.2794952E+03  0.7546771E-02  0.1097692E+00
       21   -1    0    0  501  503  0.00000000000E+00  0.00000000000E+00  0.67548286884E+03  0.67548286884E+03  0.00000000000E+00 0.  1.
       21   -1    0    0  502  504  0.00000000000E+00  0.00000000000E+00 -0.97436798676E+03  0.97436798676E+03  0.00000000000E+00 0. -1.
        6    1    1    2  501    0 -0.47519396150E+02  0.23625943598E+02 -0.36748375691E+03  0.40962127607E+03  0.17300000000E+03 0. -1.
       -6    1    1    2    0  503 -0.28924304345E+01  0.20433746831E+01  0.29126505127E+03  0.33878735459E+03  0.17300000000E+03 0.  1.
        6    1    1    2  502    0  0.29726933868E+03  0.27267701770E+03 -0.43636651951E+02  0.44108386175E+03  0.17300000000E+03 0.  1.
       -6    1    1    2    0  504 -0.24685751210E+03 -0.29834633598E+03 -0.17902976034E+03  0.46035836319E+03  0.17300000000E+03 0. -1.
</event>
<event>
 6   0  0.4500850E-05  0.2666881E+03  0.7546771E-02  0.1112832E+00
       21   -1    0    0  501  503  0.00000000000E+00  0.00000000000E+00  0.12211750859E+04  0.12211750859E+04  0.00000000000E+00 0.  1.
       21   -1    0    0  502  504  0.00000000000E+00  0.00000000000E+00 -0.25252058249E+03  0.25252058249E+03  0.00000000000E+00 0.  1.
        6    1    1    2  501    0  0.33830607082E+02  0.22091990410E+02  0.12376927197E+03  0.21651881835E+03  0.17300000000E+03 0. -1.
       -6    1    1    2    0  503  0.13942855779E+03 -0.29705593982E+03  0.31528592591E+03  0.48684368044E+03  0.17300000000E+03 0.  1.
        6    1    1    2  502    0 -0.10485694588E+03  0.10707455069E+03  0.57732312408E+02  0.23605499020E+03  0.17300000000E+03 0.  1.
       -6    1    1    2    0  504 -0.68402218998E+02  0.16788939872E+03  0.47186699313E+03  0.53427817939E+03  0.17300000000E+03 0. -1.
</event>
<event>
 6   0  0.4500850E-05  0.2095638E+03  0.7546771E-02  0.1144669E+00
       21   -1    0    0  501  503  0.00000000000E+00  0.00000000000E+00  0.64632836329E+03  0.64632836329E+03  0.00000000000E+00 0.  1.
       21   -1    0    0  503  504  0.00000000000E+00  0.00000000000E+00 -0.79044616247E+03  0.79044616247E+03  0.00000000000E+00 0. -1.
        6    1    1    2  501    0  0.61755134864E+01  0.17388548658E+02  0.41263066547E+03  0.44780974160E+03  0.17300000000E+03 0.  1.
       -6    1    1    2    0  504 -0.34474159159E+02 -0.61138373894E+02 -0.30447243986E+03  0.35715379747E+03  0.17300000000E+03 0. -1.
        6    1    1    2  502    0 -0.13538259586E+03  0.57746287177E+02 -0.31195707071E+03  0.38588767136E+03  0.17300000000E+03 0. -1.
       -6    1    1    2    0  502  0.16368124153E+03 -0.13996461941E+02  0.59681045922E+02  0.24592331532E+03  0.17300000000E+03 0. -1.
</event>
<event>
 6   0  0.4500850E-05  0.2094005E+03  0.7546771E-02  0.1146651E+00
       21   -1    0    0  501  503  0.00000000000E+00  0.00000000000E+00  0.49627274780E+03  0.49627274780E+03  0.00000000000E+00 0.  1.
       21   -1    0    0  502  504  0.00000000000E+00  0.00000000000E+00 -0.21187901533E+04  0.21187901533E+04  0.00000000000E+00 0.  1.
        6    1    1    2  501    0  0.23079501204E+02  0.21206720974E+02 -0.36241419238E+03  0.40280942793E+03  0.17300000000E+03 0.  1.
       -6    1    1    2    0  504  0.92173760560E+02 -0.11227108850E+03 -0.16371629833E+04  0.16526743277E+04  0.17300000000E+03 0.  1.
        6    1    1    2  502    0  0.97438755563E+01  0.91787129190E+02  0.21924086356E+03  0.29413496299E+03  0.17300000000E+03 0.  1.
       -6    1    1    2    0  503 -0.12499713732E+03 -0.72276166439E+00  0.15781890665E+03  0.26544418249E+03  0.17300000000E+03 0.  1.
</event>
<event>
 6   0  0.4500850E-05  0.5861231E+03  0.7546771E-02  0.9934622E-01
        2   -1    0    0  502    0  0.00000000000E+00  0.00000000000E+00  0.15981379399E+04  0.15981379399E+04  0.00000000000E+00 0.  1.
       -2   -1    0    0    0  501  0.00000000000E+00  0.00000000000E+00 -0.38242761703E+03  0.38242761703E+03  0.00000000000E+00 0. -1.
        6    1    1    2  502    0  0.26316986805E+03 -0.22750115759E+03  0.99650154627E+03  0.10695604181E+04  0.17300000000E+03 0.  1.
       -6    1    1    2    0  501 -0.32209080282E+03  0.15469129050E+03  0.23924482477E+03  0.46350724568E+03  0.17300000000E+03 0. -1.
        6    1    1    2  503    0 -0.83718096167E+02  0.94963788017E+02 -0.50208120060E+02  0.22017424005E+03  0.17300000000E+03 0. -1.
       -6    1    1    2    0  503  0.14263903093E+03 -0.22153920926E+02  0.30172071879E+02  0.22732365314E+03  0.17300000000E+03 0.  1.
</event>
<event>
 6   0  0.4500850E-05  0.2458662E+03  0.7546771E-02  0.1122227E+00
       21   -1    0    0  501  503  0.00000000000E+00  0.00000000000E+00  0.48065584585E+03  0.48065584585E+03  0.00000000000E+00 0.  1.
       21   -1    0    0  503  504  0.00000000000E+00  0.00000000000E+00 -0.18382805910E+04  0.18382805910E+04  0.00000000000E+00 0. -1.
        6    1    1    2  501    0  0.11101991766E+03  0.17453415433E+01  0.24114464966E+03  0.31687254598E+03  0.17300000000E+03 0.  1.
       -6    1    1    2    0  502 -0.10127345753E+03  0.24215559308E+03 -0.14858324269E+03  0.34770910898E+03  0.17300000000E+03 0. -1.
        6    1    1    2  502    0  0.78341297025E+01 -0.22415845919E+03 -0.11172289789E+03  0.30449859495E+03  0.17300000000E+03 0.  1.
       -6    1    1    2    0  504 -0.17580589839E+02 -0.19742475434E+02 -0.13384632542E+04  0.13498561869E+04  0.17300000000E+03 0. -1.
</event>
<event>
 6   0  0.4500850E-05  0.6474153E+03  0.7546771E-02  0.9996444E-01
       21   -1    0    0  501  503  0.00000000000E+00  0.00000000000E+00  0.54540318206E+03  0.54540318206E+03  0.00000000000E+00 0.  1.
       21   -1    0    0  502  504  0.00000000000E+00  0.00000000000E+00 -0.13095843124E+04  0.13095843124E+04  0.00000000000E+00 0.  1.
        6    1    1    2  501    0 -0.35046556559E+03  0.85517166334E+02 -0.21759301660E+03  0.45542839094E+03  0.17300000000E+03 0.  1.
       -6    1    1    2    0  504 -0.27989424571E+03 -0.13958843604E+03 -0.52023052602E+03  0.63118501286E+03  0.17300000000E+03 0.  1.
        6    1    1    2  502    0  0.26963936174E+03  0.15260802756E+03  0.78104549128E+01  0.35494309217E+03  0.17300000000E+03 0. -1.
       -6    1    1    2    0  503  0.36072044955E+03 -0.98536757851E+02 -0.34168042624E+02  0.41343099848E+03  0.17300000000E+03 0.  1.
</event>
<event>
 6   0  0.4500850E-05  0.2178353E+03  0.7546771E-02  0.1143357E+00
       21   -1    0    0  501  503  0.00000000000E+00  0.00000000000E+00  0.83744122653E+03  0.83744122653E+03  0.00000000000E+00 0.  1.
       21   -1    0    0  503  504  0.00000000000E+00  0.00000000000E+00 -0.36682028446E+03  0.36682028446E+03  0.00000000000E+00 0.  1.
        6    1    1    2  501    0  0.61145589327E+02  0.77898671955E+02  0.21079780833E+03  0.29012359811E+03  0.17300000000E+03 0.  1.
       -6    1    1    2    0  502 -0.15585462373E+03 -0.59747660039E+02  0.42179616711E+03  0.48549094039E+03  0.17300000000E+03 0.  1.
        6    1    1    2  502    0  0.44937287582E+02 -0.26799222133E+02 -0.17016063425E+03  0.24823617700E+03  0.17300000000E+03 0.  1.
       -6    1    1    2    0  504  0.49771746820E+02  0.86482102168E+01  0.81876008799E+01  0.18041079549E+03  0.17300000000E+03 0.  1.
</event>
<event>
 6   0  0.4500850E-05  0.2004740E+03  0.7546771E-02  0.1154431E+00
       21   -1    0    0  502  503  0.00000000000E+00  0.00000000000E+00  0.66696725536E+03  0.66696725536E+03  0.00000000000E+00 0. -1.
       21   -1    0    0  501  504  0.00000000000E+00  0.00000000000E+00 -0.37084010421E+03  0.37084010421E+03  0.00000000000E+00 0. -1.
        6    1    1    2  501    0 -0.54998264550E+02 -0.72111920154E+02 -0.71789042130E+02  0.20810479260E+03  0.17300000000E+03 0.  1.
       -6    1    1    2    0  504  0.84367397946E+02  0.11966473492E+03  0.11245229677E+03  0.25300597951E+03  0.17300000000E+03 0. -1.
        6    1    1    2  502    0 -0.15791598050E+02 -0.86111465982E+02  0.33095385186E+03  0.38356747934E+03  0.17300000000E+03 0. -1.
       -6    1    1    2    0  503 -0.13577535347E+02  0.38558651216E+02 -0.75489955349E+02  0.19312910813E+03  0.17300000000E+03 0. -1.
</event>
<event>
 6   0  0.4500850E-05  0.6735377E+03  0.7546771E-02  0.9891670E-01
       21   -1    0    0  501  503  0.00000000000E+00  0.00000000000E+00  0.13069232336E+04  0.13069232336E+04  0.00000000000E+00 0.  1.
       21   -1    0    0  502  504  0.00000000000E+00  0.00000000000E+00 -0.12071159660E+04  0.12071159660E+04  0.00000000000E+00 0. -1.
        6    1    1    2  501    0 -0.20357677247E+03 -0.27590345105E+03 -0.10584895258E+03  0.39837070343E+03  0.17300000000E+03 0.  1.
       -6    1    1    2    0  504  0.34726234531E+02  0.28092602853E+03 -0.20757258959E+01  0.33175089075E+03  0.17300000000E+03 0.  1.
        6    1    1    2  502    0  0.11064301752E+03  0.52511325014E+03 -0.58529711310E+03  0.81270382884E+03  0.17300000000E+03 0. -1.
       -6    1    1    2    0  503  0.58207520422E+02 -0.53013582763E+03  0.79302905917E+03  0.97121377660E+03  0.17300000000E+03 0. -1.
</event>
<event>
 6   0  0.4500850E-05  0.3196340E+03  0.7546771E-02  0.1078210E+00
       21   -1    0    0  502  503  0.00000000000E+00  0.00000000000E+00  0.14175238443E+04  0.14175238443E+04  0.00000000000E+00 0.  1.
       21   -1    0    0  501  504  0.00000000000E+00  0.00000000000E+00 -0.55911820764E+03  0.55911820764E+03  0.00000000000E+00 0.  1.
        6    1    1    2  501    0  0.76528378452E+02 -0.87786164528E+02 -0.24681830802E+03  0.32312734420E+03  0.17300000000E+03 0.  1.
       -6    1    1    2    0  503  0.32669757795E+03 -0.29692394159E+03  0.47927523999E+03  0.67418757790E+03  0.17300000000E+03 0.  1.
        6    1    1    2  502    0  0.11638294067E+02  0.87959282078E+02  0.27381274237E+03  0.33581945011E+03  0.17300000000E+03 0.  1.
       -6    1    1    2    0  504 -0.41486425047E+03  0.29675082404E+03  0.35213596229E+03  0.64350767970E+03  0.17300000000E+03 0.  1.
</event>
<event>
 6   0  0.4500850E-05  0.4044897E+03  0.7546771E-02  0.1056832E+00
       21   -1    0    0  501  503  0.00000000000E+00  0.00000000000E+00  0.47271428988E+03  0.47271428988E+03  0.00000000000E+00 0. -1.
       21   -1    0    0  502  504  0.00000000000E+00  0.00000000000E+00 -0.10360206161E+04  0.10360206161E+04  0.00000000000E+00 0. -1.
        6    1    1    2  501    0  0.13502391744E+03 -0.66817422431E+02 -0.20559320209E+03  0.30804803354E+03  0.17300000000E+03 0.  1.
       -6    1    1    2    0  504 -0.26171564719E+03  0.14140602643E+02 -0.35138485420E+03  0.47126993580E+03  0.17300000000E+03 0. -1.
        6    1    1    2  502    0 -0.14661963968E+03 -0.42652952137E+02 -0.22917520952E+03  0.32521818788E+03  0.17300000000E+03 0. -1.
       -6    1    1    2    0  503  0.27331136942E+03  0.95329771925E+02  0.22284693955E+03  0.40419874881E+03  0.17300000000E+03 0. -1.
</event>
<event>
 6   0  0.4500850E-05  0.5440941E+03  0.7546771E-02  0.1031135E+00
       21   -1    0    0  501  503  0.00000000000E+00  0.00000000000E+00  0.32603750520E+03  0.32603750520E+03  0.00000000000E+00 0.  1.
       21   -1    0    0  503  504  0.00000000000E+00  0.00000000000E+00 -0.24181242361E+04  0.24181242361E+04  0.00000000000E+00 0. -1.
        6    1    1    2  501    0  0.29418604699E+03  0.37166825561E+03 -0.55977861314E+02  0.50768616628E+03  0.17300000000E+03 0.  1.
       -6    1    1    2    0  504 -0.15886349268E+02 -0.12043755062E+03 -0.46937687192E+03  0.51478269938E+03  0.17300000000E+03 0. -1.
        6    1    1    2  502    0 -0.16567698038E+03 -0.14972022306E+03 -0.14222829097E+04  0.14500629925E+04  0.17300000000E+03 0. -1.
       -6    1    1    2    0  502 -0.11262271735E+03 -0.10151048194E+03 -0.14444908802E+03  0.27162988318E+03  0.17300000000E+03 0. -1.
</event>
<event>
 6   0  0.4500850E-05  0.2773850E+03  0.7546771E-02  0.1102871E+00
       21   -1    0    0  501  503  0.00000000000E+00  0.00000000000E+00  0.81003383948E+03  0.81003383948E+03  0.00000000000E+00 0.  1.
       21   -1    0    0  502  504  0.00000000000E+00  0.00000000000E+00 -0.19375463015E+04  0.19375463015E+04  0.00000000000E+00 0.  1.
        6    1    1    2  501    0 -0.51890619544E+02 -0.29866460611E+02 -0.62291348727E+03  0.64925715590E+03  0.17300000000E+03 0. -1.
       -6    1    1    2    0  504 -0.36838381192E+02 -0.27554491864E+03 -0.11383137930E+04  0.11844700755E+04  0.17300000000E+03 0.  1.
        6    1    1    2  502    0  0.74812213213E+01  0.39893014383E+03  0.49944048429E+03  0.66224695218E+03  0.17300000000E+03 0.  1.
       -6    1    1    2    0  503  0.81247779414E+02 -0.93518764582E+02  0.13427433400E+03  0.25160595732E+03  0.17300000000E+03 0. -1.
</event>
<event>
 6   0  0.4500850E-05  0.3031090E+03  0.7546771E-02  0.1086754E+00
       21   -1    0    0  502  503  0.00000000000E+00  0.00000000000E+00  0.24089837225E+04  0.24089837225E+04  0.00000000000E+00 0.  1.
       21   -1    0    0  501  504  0.00000000000E+00  0.00000000000E+00 -0.34572581583E+03  0.34572581583E+03  0.00000000000E+00 0.  1.
        6    1    1    2  501    0 -0.10953509717E+03 -0.17822064457E+03 -0.27491955985E+02  0.27284673959E+03  0.17300000000E+03 0.  1.
       -6    1    1    2    0  503 -0.16794394162E+03  0.19492027502E+02 -0.20803383758E+02  0.24278980094E+03  0.17300000000E+03 0.  1.
        6    1    1    2  502    0  0.18978474307E+02 -0.19904777276E+03  0.90113680669E+03  0.93912552020E+03  0.17300000000E+03 0.  1.
       -6    1    1    2    0  504  0.25850056448E+03  0.35777638982E+03  0.12104164397E+04  0.12999474776E+04  0.17300000000E+03 0.  1.
</event>
<event>
 6   0  0.4500850E-05  0.2425234E+03  0.7546771E-02  0.1120261E+00
       21   -1    0    0  502  503  0.00000000000E+00  0.00000000000E+00  0.15748328855E+04  0.15748328855E+04  0.00000000000E+00 0. -1.
       21   -1    0    0  501  504  0.00000000000E+00  0.00000000000E+00 -0.17245210581E+03  0.17245210581E+03  0.00000000000E+00 0. -1.
        6    1    1    2  501    0  0.11431619014E+03 -0.26465216076E+02  0.16527619537E+03  0.26648418291E+03  0.17300000000E+03 0.  1.
       -6    1    1    2    0  504 -0.62218654581E+02  0.18231327615E+03  0.40703950372E+03  0.48241004262E+03  0.17300000000E+03 0. -1.
        6    1    1    2  502    0 -0.17841497911E+03  0.40637355004E+02  0.28239976380E+03  0.37836744837E+03  0.17300000000E+03 0. -1.
       -6    1    1    2    0  503  0.12631744356E+03 -0.19648541508E+03  0.54766531680E+03  0.62002331739E+03  0.17300000000E+03 0. -1.
</event>
<event>
 6   0  0.4500850E-05  0.2806534E+03  0.7546771E-02  0.1103611E+00
       21   -1    0    0  502  503  0.00000000000E+00  0.00000000000E+00  0.84499881744E+03  0.84499881744E+03  0.00000000000E+00 0. -1.
       21   -1    0    0  503  504  0.00000000000E+00  0.00000000000E+00 -0.68501822656E+03  0.68501822656E+03  0.00000000000E+00 0. -1.
        6    1    1    2  501    0  0.23731290666E+03  0.36948309944E+02 -0.15023330568E+02  0.29637357126E+03  0.17300000000E+03 0.  1.
       -6    1    1    2    0  504  0.13121597995E+03 -0.96705099585E+01 -0.37143025837E+03  0.43034938015E+03  0.17300000000E+03 0. -1.
        6    1    1    2  502    0 -0.12429510075E+01  0.27850498258E+02  0.12302335546E+03  0.21410497698E+03  0.17300000000E+03 0. -1.
       -6    1    1    2    0  501 -0.36728593561E+03 -0.55128298243E+02  0.42341082437E+03  0.58918911561E+03  0.17300000000E+03 0. -1.
</event>
<event>
 6   0  0.4500850E-05  0.2480175E+03  0.7546771E-02  0.1116405E+00
       21   -1    0    0  504  503  0.00000000000E+00  0.00000000000E+00  0.32825730656E+03  0.32825730656E+03  0.00000000000E+00 0. -1.
       21   -1    0    0  502  504  0.00000000000E+00  0.00000000000E+00 -0.19131960898E+04  0.19131960898E+04  0.00000000000E+00 0.  1.
        6    1    1    2  501    0 -0.32527034903E+03 -0.47484111274E+02 -0.31299860772E+03  0.48574959518E+03  0.17300000000E+03 0. -1.
       -6    1    1    2    0  503  0.59150837960E+02  0.28320759795E+02  0.74226433326E+02  0.19934756199E+03  0.17300000000E+03 0. -1.
        6    1    1    2  502    0  0.53562071406E+02  0.66077265651E+02 -0.12459861505E+04  0.12608114799E+04  0.17300000000E+03 0.  1.
       -6    1    1    2    0  501  0.21255743966E+03 -0.46913914172E+02 -0.10018045827E+03  0.29554475925E+03  0.17300000000E+03 0. -1.
</event>
<event>
 6   0  0.4500850E-05  0.2804896E+03  0.7546771E-02  0.1101832E+00
       21   -1    0    0  501  503  0.00000000000E+00  0.00000000000E+00  0.96813653725E+03  0.96813653725E+03  0.00000000000E+00 0. -1.
       21   -1    0    0  502  504  0.00000000000E+00  0.00000000000E+00 -0.13278504819E+04  0.13278504819E+04  0.00000000000E+00 0. -1.
        6    1    1    2  501    0 -0.39518561856E+03 -0.10241601495E+03 -0.94934060026E+03  0.10477773087E+04  0.17300000000E+03 0. -1.
       -6    1    1    2    0  503  0.20412020083E+03 -0.75565385354E+02  0.70082388941E+03  0.75396174162E+03  0.17300000000E+03 0. -1.
        6    1    1    2  502    0  0.16235040779E+03  0.86954978781E+01 -0.44486620091E+02  0.24153949151E+03  0.17300000000E+03 0.  1.
       -6    1    1    2    0  504  0.28715009935E+02  0.16928590243E+03 -0.66710613722E+02  0.25270847738E+03  0.17300000000E+03 0.  1.
</event>
<event>
 6   0  0.4500850E-05  0.2498107E+03  0.7546771E-02  0.1115556E+00
       21   -1    0    0  501  503  0.00000000000E+00  0.00000000000E+00  0.10808126625E+04  0.10808126625E+04  0.00000000000E+00 0. -1.
       21   -1    0    0  503  504  0.00000000000E+00  0.00000000000E+00 -0.42348891642E+03  0.42348891642E+03  0.00000000000E+00 0.  1.
        6    1    1    2  501    0  0.56893659581E+02  0.62551468269E+02  0.38468423327E+03  0.43018662695E+03  0.17300000000E+03 0.  1.
       -6    1    1    2    0  502  0.22622796981E+03 -0.55688141958E+02  0.46400985225E+03  0.54727909376E+03  0.17300000000E+03 0. -1.
        6    1    1    2  502    0 -0.70993595592E+02  0.77755395690E+02 -0.57052474685E+02  0.21040431802E+03  0.17300000000E+03 0.  1.
       -6    1    1    2    0  504 -0.21212803380E+03 -0.84618722000E+02 -0.13431786475E+03  0.31643154019E+03  0.17300000000E+03 0.  1.
</event>
<event>
 6   0  0.4500850E-05  0.3539150E+03  0.7546771E-02  0.1084969E+00
       21   -1    0    0  502  503  0.00000000000E+00  0.00000000000E+00  0.10325862951E+04  0.10325862951E+04  0.00000000000E+00 0.  1.
       21   -1    0    0  501  504  0.00000000000E+00  0.00000000000E+00 -0.56322344740E+03  0.56322344740E+03  0.00000000000E+00 0.  1.
        6    1    1    2  501    0 -0.20897766146E+03 -0.16976991577E+03 -0.24695293341E+02  0.32098651810E+03  0.17300000000E+03 0.  1.
       -6    1    1    2    0  503  0.53756695716E+02 -0.79240691595E+02 -0.25442819327E+02  0.19936199887E+03  0.17300000000E+03 0. -1.
        6    1    1    2  502    0 -0.49091765920E+02 -0.39178493570E+02  0.63850506763E+03  0.66450182636E+03  0.17300000000E+03 0.  1.
       -6    1    1    2    0  504  0.20431273167E+03  0.28818910093E+03 -0.11900410726E+03  0.41095939917E+03  0.17300000000E+03 0.  1.
</event>
<event>
 6   0  0.4500850E-05  0.3618491E+03  0.7546771E-02  0.1076641E+00
       21   -1    0    0  501  503  0.00000000000E+00  0.00000000000E+00  0.93405246511E+03  0.93405246511E+03  0.00000000000E+00 0. -1.
       21   -1    0    0  502  504  0.00000000000E+00  0.00000000000E+00 -0.12586756705E+04  0.12586756705E+04  0.00000000000E+00 0.  1.
        6    1    1    2  501    0 -0.19338293124E+01  0.12838215230E+03  0.46560757661E+03  0.51303521529E+03  0.17300000000E+03 0. -1.
       -6    1    1    2    0  504 -0.26287837363E+03 -0.40954975828E+03  0.81580507041E+02  0.52289618756E+03  0.17300000000E+03 0. -1.
        6    1    1    2  502    0  0.17310547423E+02  0.30258111593E+03 -0.75602466741E+03  0.83268078187E+03  0.17300000000E+03 0.  1.
       -6    1    1    2    0  503  0.24750165552E+03 -0.21413509949E+02 -0.11578662168E+03  0.32411595094E+03  0.17300000000E+03 0.  1.
</event>
<event>
 6   0  0.4500850E-05  0.6210295E+03  0.7546771E-02  0.1026422E+00
       21   -1    0    0  502  503  0.00000000000E+00  0.00000000000E+00  0.63423886763E+03  0.63423886763E+03  0.00000000000E+00 0.  1.
       21   -1    0    0  501  504  0.00000000000E+00  0.00000000000E+00 -0.29126424926E+04  0.29126424926E+04  0.00000000000E+00 0. -1.
        6    1    1    2  501    0 -0.26319963716E+01 -0.63431150469E+02  0.85907743224E+01  0.18448100081E+03  0.17300000000E+03 0.  1.
       -6    1    1    2    0  504  0.27950276524E+02  0.31065878768E+02 -0.56306591555E+03  0.59052394705E+03  0.17300000000E+03 0. -1.
        6    1    1    2  502    0 -0.23755933751E+03  0.30069487188E+03 -0.21546274310E+04  0.21952676855E+04  0.17300000000E+03 0. -1.
       -6    1    1    2    0  503  0.21224105736E+03 -0.26832960017E+03  0.43069894721E+03  0.57660872686E+03  0.17300000000E+03 0.  1.
</event>
<event>
 6   0  0.4500850E-05  0.2089046E+03  0.7546771E-02  0.1143178E+00
       21   -1    0    0  504  503  0.00000000000E+00  0.00000000000E+00  0.23151831948E+04  0.23151831948E+04  0.00000000000E+00 0. -1.
       21   -1    0    0  502  504  0.00000000000E+00  0.00000000000E+00 -0.81129706139E+02  0.81129706139E+02  0.00000000000E+00 0. -1.
        6    1    1    2  501    0 -0.37673027480E+02 -0.95925708598E+02  0.32710351932E+03  0.38411809502E+03  0.17300000000E+03 0.  1.
       -6    1    1    2    0  503  0.12843459182E+03  0.31825135773E+02  0.71011291790E+03  0.74276351540E+03  0.17300000000E+03 0. -1.
        6    1    1    2  502    0 -0.14523603334E+03 -0.10249314099E+02  0.59754879469E+03  0.63889914372E+03  0.17300000000E+03 0. -1.
       -6    1    1    2    0  501  0.54474468999E+02  0.74349886924E+02  0.59928825672E+03  0.63053214677E+03  0.17300000000E+03 0. -1.
</event>
<event>
 6   0  0.4500850E-05  0.2333563E+03  0.7546771E-02  0.1127470E+00
       21   -1    0    0  501  503  0.00000000000E+00  0.00000000000E+00  0.13748243073E+04  0.13748243073E+04  0.00000000000E+00 0. -1.
       21   -1    0    0  502  504  0.00000000000E+00  0.00000000000E+00 -0.33427140236E+03  0.33427140236E+03  0.00000000000E+00 0. -1.
        6    1    1    2  501    0  0.10505250240E+03 -0.21028215939E+02 -0.78361832473E+02  0.21805455949E+03  0.17300000000E+03 0.  1.
       -6    1    1    2    0  504 -0.12756561082E+03  0.15450493429E+03  0.33571056490E+02  0.26683473466E+03  0.17300000000E+03 0.  1.
        6    1    1    2  502    0  0.65987360995E+02 -0.27152694574E+03  0.76312417975E+03  0.83088430470E+03  0.17300000000E+03 0. -1.
       -6    1    1    2    0  503 -0.43474252576E+02  0.13805022739E+03  0.32221950114E+03  0.39332211079E+03  0.17300000000E+03 0. -1.
</event>
<event>
 6   0  0.4500850E-05  0.1060461E+04  0.7546771E-02  0.9253141E-01
       -1   -1    0    0    0  501  0.00000000000E+00  0.00000000000E+00  0.94445814588E+03  0.94445814588E+03  0.00000000000E+00 0.  1.
        1   -1    0    0  502    0  0.00000000000E+00  0.00000000000E+00 -0.25258142395E+04  0.25258142395E+04  0.00000000000E+00 0. -1.
        6    1    1    2  502    0  0.40279768741E+02 -0.74709568082E+02  0.46518713573E+02  0.19823463382E+03  0.17300000000E+03 0.  1.
       -6    1    1    2    0  501 -0.92065228922E+02  0.65583653197E+03 -0.18204307233E+04  0.19448636409E+04  0.17300000000E+03 0. -1.
        6    1    1    2  503    0 -0.75266456032E+02  0.21942644394E+03 -0.25458120150E+03  0.38542650644E+03  0.17300000000E+03 0. -1.
       -6    1    1    2    0  503  0.12705191621E+03 -0.80055340783E+03  0.44713711763E+03  0.94174760428E+03  0.17300000000E+03 0.  1.
</event>
<event>
 6   0  0.4500850E-05  0.2275596E+03  0.7546771E-02  0.1134137E+00
       21   -1    0    0  502  503  0.00000000000E+00  0.00000000000E+00  0.10529557232E+04  0.10529557232E+04  0.00000000000E+00 0. -1.
       21   -1    0    0  501  504  0.00000000000E+00  0.00000000000E+00 -0.39581834717E+03  0.39581834717E+03  0.00000000000E+00 0.  1.
        6    1    1    2  501    0  0.20261812690E+03 -0.15866067508E+02 -0.42741205038E+02  0.27029918249E+03  0.17300000000E+03 0.  1.
       -6    1    1    2    0  503 -0.16410085504E+03 -0.62041948019E+02  0.51012398705E+02  0.25161390812E+03  0.17300000000E+03 0. -1.
        6    1    1    2  502    0  0.61510803435E+02 -0.17293737683E+02  0.67887687720E+03  0.70348096399E+03  0.17300000000E+03 0. -1.
       -6    1    1    2    0  504 -0.10002807529E+03  0.95201753211E+02 -0.30010694787E+02  0.22338001581E+03  0.17300000000E+03 0.  1.
</event>
<event>
 6   0  0.4500850E-05  0.6029474E+03  0.7546771E-02  0.9903400E-01
       21   -1    0    0  501  503  0.00000000000E+00  0.00000000000E+00  0.76137895500E+03  0.76137895500E+03  0.00000000000E+00 0.  1.
       21   -1    0    0  502  504  0.00000000000E+00  0.00000000000E+00 -0.47516913889E+03  0.47516913889E+03  0.00000000000E+00 0.  1.
        6    1    1    2  501    0  0.28898597425E+03 -0.95228107313E+02  0.10440987939E+03  0.36525567573E+03  0.17300000000E+03 0.  1.
       -6    1    1    2    0  504 -0.27908723948E+03  0.47648103949E+02  0.93769610301E+02  0.34479235616E+03  0.17300000000E+03 0.  1.
        6    1    1    2  502    0 -0.17628984105E+03  0.94562302551E+02 -0.57761679924E+01  0.26454205949E+03  0.17300000000E+03 0.  1.
       -6    1    1    2    0  503  0.16639110628E+03 -0.46982299188E+02  0.93806494415E+02  0.26195800251E+03  0.17300000000E+03 0.  1.
</event>
<event>
 6   0  0.4500850E-05  0.3259191E+03  0.7546771E-02  0.1079698E+00
       21   -1    0    0  501  503  0.00000000000E+00  0.00000000000E+00  0.20946843249E+04  0.20946843249E+04  0.00000000000E+00 0. -1.
       21   -1    0    0  502  504  0.00000000000E+00  0.00000000000E+00 -0.29323653231E+03  0.29323653231E+03  0.00000000000E+00 0. -1.
        6    1    1    2  501    0  0.24541837388E+03 -0.14631316108E+03  0.10633550321E+04  0.11145809273E+04  0.17300000000E+03 0. -1.
       -6    1    1    2    0  504 -0.95502610798E+02  0.29297724287E+03  0.62360615057E+03  0.71677754188E+03  0.17300000000E+03 0.  1.
        6    1    1    2  502    0  0.53707072597E+02 -0.20216820807E+03  0.66537328300E+02  0.27948640406E+03  0.17300000000E+03 0.  1.
       -6    1    1    2    0  503 -0.20362283568E+03  0.55504126280E+02  0.47949281624E+02  0.27707598390E+03  0.17300000000E+03 0. -1.
</event>
<event>
 6   0  0.4500850E-05  0.7268480E+03  0.7546771E-02  0.9891828E-01
       21   -1    0    0  501  503  0.00000000000E+00  0.00000000000E+00  0.14403161459E+04  0.14403161459E+04  0.00000000000E+00 0. -1.
       21   -1    0    0  502  504  0.00000000000E+00  0.00000000000E+00 -0.23203538311E+04  0.23203538311E+04  0.00000000000E+00 0. -1.
        6    1    1    2  501    0 -0.55575098579E+01  0.17147362974E+03 -0.35180294759E+03  0.42793504828E+03  0.17300000000E+03 0. -1.
       -6    1    1    2    0  504 -0.95830350821E+01  0.37458198202E+03 -0.17449346675E+04  0.17930782163E+04  0.17300000000E+03 0. -1.
        6    1    1    2  502    0 -0.26109823648E+03 -0.41162637411E+03  0.99989821566E+03  0.11257593005E+04  0.17300000000E+03 0. -1.
       -6    1    1    2    0  503  0.27623878142E+03 -0.13442923764E+03  0.21680171432E+03  0.41389741196E+03  0.17300000000E+03 0.  1.
</event>
<event>
 6   0  0.4500850E-05  0.2493062E+03  0.7546771E-02  0.1114143E+00
       21   -1    0    0  504  503  0.00000000000E+00  0.00000000000E+00  0.96938615013E+02  0.96938615013E+02  0.00000000000E+00 0. -1.
       21   -1    0    0  502  504  0.00000000000E+00  0.00000000000E+00 -0.29875991337E+04  0.29875991337E+04  0.00000000000E+00 0. -1.
        6    1    1    2  501    0  0.13766033962E+03  0.51616252313E+02 -0.92276999382E+03  0.95028841312E+03  0.17300000000E+03 0. -1.
       -6    1    1    2    0  501 -0.16443055930E+03  0.20723805306E+03 -0.10516379931E+04  0.10981149703E+04  0.17300000000E+03 0. -1.
        6    1    1    2  502    0 -0.84216513827E+02 -0.90170407263E+02 -0.48487405101E+03  0.52939113034E+03  0.17300000000E+03 0.  1.
       -6    1    1    2    0  503  0.11098673350E+03 -0.16868389811E+03 -0.43137848067E+03  0.50674323486E+03  0.17300000000E+03 0. -1.
</event>
<event>
 6   0  0.4500850E-05  0.2082583E+03  0.7546771E-02  0.1147086E+00
       21   -1    0    0  501  503  0.00000000000E+00  0.00000000000E+00  0.11644882823E+04  0.11644882823E+04  0.00000000000E+00 0.  1.
       21   -1    0    0  503  504  0.00000000000E+00  0.00000000000E+00 -0.23555664918E+03  0.23555664918E+03  0.00000000000E+00 0. -1.
        6    1    1    2  501    0 -0.88288674256E+02  0.56808516786E+02  0.50113778206E+03  0.54045367441E+03  0.17300000000E+03 0.  1.
       -6    1    1    2    0  504 -0.14464560133E+02 -0.10334773230E+03 -0.59338070207E+02  0.21057061487E+03  0.17300000000E+03 0. -1.
        6    1    1    2  502    0  0.90935349518E+02  0.99944877650E+02  0.37848903181E+03  0.43753989939E+03  0.17300000000E+03 0.  1.
       -6    1    1    2    0  502  0.11817884871E+02 -0.53405662135E+02  0.10864288949E+03  0.21148074283E+03  0.17300000000E+03 0.  1.
</event>
<event>
 6   0  0.4500850E-05  0.5467915E+03  0.7546771E-02  0.1015299E+00
       21   -1    0    0  501  503  0.00000000000E+00  0.00000000000E+00  0.14200663745E+04  0.14200663745E+04  0.00000000000E+00 0. -1.
       21   -1    0    0  502  504  0.00000000000E+00  0.00000000000E+00 -0.44179647877E+03  0.44179647877E+03  0.00000000000E+00 0. -1.
        6    1    1    2  501    0 -0.13119517388E+02 -0.32105160390E+03 -0.89022577053E+02  0.37563316325E+03  0.17300000000E+03 0. -1.
       -6    1    1    2    0  504 -0.21623356608E+03  0.56371359977E+02  0.30097222515E+03  0.41285344329E+03  0.17300000000E+03 0.  1.
        6    1    1    2  502    0 -0.15906991394E+03  0.19248844444E+03  0.42985565005E+03  0.52636481517E+03  0.17300000000E+03 0. -1.
       -6    1    1    2    0  503  0.38842299741E+03  0.72191799488E+02  0.33646459757E+03  0.54701143155E+03  0.17300000000E+03 0. -1.
</event>
<event>
 6   0  0.4500850E-05  0.2000782E+03  0.7546771E-02  0.1150961E+00
       21   -1    0    0  504  503  0.00000000000E+00  0.00000000000E+00  0.11675821980E+04  0.11675821980E+04  0.00000000000E+00 0.  1.
       21   -1    0    0  502  504  0.00000000000E+00  0.00000000000E+00 -0.37766034592E+03  0.37766034592E+03  0.00000000000E+00 0. -1.
        6    1    1    2  501    0  0.34043491625E+02  0.43839350611E+02  0.30194571029E+03  0.35239333130E+03  0.17300000000E+03 0.  1.
       -6    1    1    2    0  503 -0.16364354132E+03  0.27141778744E+00  0.70558733813E+03  0.74468904518E+03  0.17300000000E+03 0.  1.
        6    1    1    2  502    0  0.62830845569E+00 -0.29532016774E+02 -0.98225384153E+02  0.20112125914E+03  0.17300000000E+03 0. -1.
       -6    1    1    2    0  501  0.12897174124E+03 -0.14578751624E+02 -0.11938581221E+03  0.24703890826E+03  0.17300000000E+03 0. -1.
</event>
<event>
 6   0  0.4500850E-05  0.2300353E+03  0.7546771E-02  0.1127139E+00
       21   -1    0    0  504  503  0.00000000000E+00  0.00000000000E+00  0.57490394610E+03  0.57490394610E+03  0.00000000000E+00 0. -1.
       21   -1    0    0  502  504  0.00000000000E+00  0.00000000000E+00 -0.16465072557E+04  0.16465072557E+04  0.00000000000E+00 0.  1.
        6    1    1    2  501    0  0.46740191100E+02  0.63186874574E+01  0.22044980549E+03  0.28416841488E+03  0.17300000000E+03 0. -1.
       -6    1    1    2    0  503  0.19522338120E+03 -0.18626468637E+02  0.21857095929E+03  0.34082455626E+03  0.17300000000E+03 0. -1.
        6    1    1    2  502    0 -0.25976359007E+03  0.45974252181E+02 -0.71810704201E+03  0.78434525457E+03  0.17300000000E+03 0.  1.
       -6    1    1    2    0  501  0.17800017767E+02 -0.33666471001E+02 -0.79251703234E+03  0.81207297606E+03  0.17300000000E+03 0.  1.
</event>
<event>
 6   0  0.4500850E-05  0.2816445E+03  0.7546771E-02  0.1099714E+00
       21   -1    0    0  502  503  0.00000000000E+00  0.00000000000E+00  0.44267006483E+03  0.44267006483E+03  0.00000000000E+00 0.  1.
       21   -1    0    0  503  504  0.00000000000E+00  0.00000000000E+00 -0.11147581699E+04  0.11147581699E+04  0.00000000000E+00 0.  1.
        6    1    1    2  501    0 -0.14240995515E+03 -0.10564180779E+03 -0.51727683161E+03  0.57353736356E+03  0.17300000000E+03 0.  1.
       -6    1    1    2    0  501  0.17118227806E+03 -0.17577395250E+03  0.96545439999E+02  0.31535674511E+03  0.17300000000E+03 0.  1.
        6    1    1    2  502    0 -0.19831048716E+03  0.59442362977E+02 -0.27981781450E+02  0.27124237119E+03  0.17300000000E+03 0. -1.
       -6    1    1    2    0  504  0.16953816424E+03  0.22197339731E+03 -0.22337493204E+03  0.39729175490E+03  0.17300000000E+03 0.  1.
</event>
<event>
 6   0  0.4500850E-05  0.6333989E+03  0.7546771E-02  0.9838438E-01
        1   -1    0    0  503    0  0.00000000000E+00  0.00000000000E+00  0.12119877322E+04  0.12119877322E+04  0.00000000000E+00 0.  1.
       -1   -1    0    0    0  501  0.00000000000E+00  0.00000000000E+00 -0.48614341971E+03  0.48614341971E+03  0.00000000000E+00 0. -1.
        6    1    1    2  502    0  0.22514459028E+03  0.81859655050E+02 -0.81373814418E+02  0.30649924524E+03  0.17300000000E+03 0. -1.
       -6    1    1    2    0  501  0.15972233324E+03 -0.22283956879E+03  0.18290136577E+02  0.32470328956E+03  0.17300000000E+03 0. -1.
        6    1    1    2  503    0 -0.41973686275E+03  0.17933075552E+03  0.72766704268E+03  0.87622307595E+03  0.17300000000E+03 0.  1.
       -6    1    1    2    0  502  0.34869939232E+02 -0.38350841778E+02  0.61260947679E+02  0.19070554118E+03  0.17300000000E+03 0. -1.
</event>
<event>
 6   0  0.4500850E-05  0.2690854E+03  0.7546771E-02  0.1106802E+00
       21   -1    0    0  501  503  0.00000000000E+00  0.00000000000E+00  0.68858446974E+03  0.68858446974E+03  0.00000000000E+00 0. -1.
       21   -1    0    0  502  504  0.00000000000E+00  0.00000000000E+00 -0.53484056901E+03  0.53484056901E+03  0.00000000000E+00 0. -1.
        6    1    1    2  501    0  0.89820161185E+02 -0.29880822280E+03  0.20423208086E+03  0.41108850412E+03  0.17300000000E+03 0. -1.
       -6    1    1    2    0  503  0.66703499987E+02  0.11520322999E+03  0.16589389752E+02  0.21891858981E+03  0.17300000000E+03 0.  1.
        6    1    1    2  502    0 -0.21805977244E+03  0.65939860843E+02  0.11599607112E+03  0.30867817889E+03  0.17300000000E+03 0. -1.
       -6    1    1    2    0  504  0.61536111271E+02  0.11766513197E+03 -0.18307364100E+03  0.28473976593E+03  0.17300000000E+03 0. -1.
</event>
<event>
 6   0  0.4500850E-05  0.3562591E+03  0.7546771E-02  0.1076039E+00
       21   -1    0    0  501  503  0.00000000000E+00  0.00000000000E+00  0.16313233057E+04  0.16313233057E+04  0.00000000000E+00 0.  1.
       21   -1    0    0  502  504  0.00000000000E+00  0.00000000000E+00 -0.60200751390E+03  0.60200751390E+03  0.00000000000E+00 0. -1.
        6    1    1    2  501    0 -0.17057449413E+03 -0.40886758891E+03  0.35886524312E+03  0.59580334509E+03  0.17300000000E+03 0. -1.
       -6    1    1    2    0  504 -0.48567761994E+02 -0.14753467954E+02 -0.86666119429E+02  0.20004126719E+03  0.17300000000E+03 0. -1.
        6    1    1    2  502    0 -0.30387085214E+01  0.43080901059E+03 -0.14980446446E+03  0.48782785379E+03  0.17300000000E+03 0.  1.
       -6    1    1    2    0  503  0.22218096464E+03 -0.71879537315E+01  0.90692113261E+03  0.94965835357E+03  0.17300000000E+03 0.  1.
</event>
<event>
 6   0  0.4500850E-05  0.2832452E+03  0.7546771E-02  0.1108609E+00
       21   -1    0    0  504  503  0.00000000000E+00  0.00000000000E+00  0.10659458978E+04  0.10659458978E+04  0.00000000000E+00 0. -1.
       21   -1    0    0  501  504  0.00000000000E+00  0.00000000000E+00 -0.71993553847E+03  0.71993553847E+03  0.00000000000E+00 0.  1.
        6    1    1    2  501    0 -0.22999162088E+03  0.33139346867E+02 -0.25880033302E+03  0.38845974612E+03  0.17300000000E+03 0.  1.
       -6    1    1    2    0  503  0.18822845070E+03  0.18332804586E+03  0.62567490911E+03  0.70031222604E+03  0.17300000000E+03 0. -1.
        6    1    1    2  502    0  0.21539956676E+03 -0.79857791458E+02 -0.21226983788E+03  0.35743772085E+03  0.17300000000E+03 0.  1.
       -6    1    1    2    0  502 -0.17363639657E+03 -0.13660960127E+03  0.19140562113E+03  0.33967174326E+03  0.17300000000E+03 0. -1.
</event>
<event>
 6   0  0.4500850E-05  0.3251180E+03  0.7546771E-02  0.1076164E+00
       21   -1    0    0  502  503  0.00000000000E+00  0.00000000000E+00  0.20395831239E+04  0.20395831239E+04  0.00000000000E+00 0. -1.
       21   -1    0    0  501  504  0.00000000000E+00  0.00000000000E+00 -0.47542865614E+03  0.47542865614E+03  0.00000000000E+00 0.  1.
        6    1    1    2  501    0  0.21114488462E+03 -0.25841666382E+02 -0.26037142053E+03  0.37811668920E+03  0.17300000000E+03 0.  1.
       -6    1    1    2    0  503  0.14680252656E+03 -0.29421200564E+03  0.30224657321E+03  0.47895059983E+03  0.17300000000E+03 0. -1.
        6    1    1    2  502    0 -0.91017916100E+02  0.24618886167E+03  0.56590839355E+03  0.64735965781E+03  0.17300000000E+03 0.  1.
       -6    1    1    2    0  504 -0.26692949508E+03  0.73864810353E+02  0.95637092154E+03  0.10105848332E+04  0.17300000000E+03 0. -1.
</event>
<event>
 6   0  0.4500850E-05  0.3214885E+03  0.7546771E-02  0.1097554E+00
       21   -1    0    0  501  503  0.00000000000E+00  0.00000000000E+00  0.96207910546E+03  0.96207910546E+03  0.00000000000E+00 0.  1.
       21   -1    0    0  503  504  0.00000000000E+00  0.00000000000E+00 -0.85233881222E+03  0.85233881222E+03  0.00000000000E+00 0. -1.
        6    1    1    2  501    0 -0.57853131554E+01 -0.32873793117E+02  0.36308686040E+03  0.40357802755E+03  0.17300000000E+03 0.  1.
       -6    1    1    2    0  502  0.30336067807E+02 -0.12665211514E+03  0.38994207833E+03  0.44603235278E+03  0.17300000000E+03 0. -1.
        6    1    1    2  502    0  0.16651204669E+03  0.25586250850E+03 -0.58710262756E+03  0.68396665141E+03  0.17300000000E+03 0. -1.
       -6    1    1    2    0  504 -0.19106280134E+03 -0.96336600246E+02 -0.56186017924E+02  0.28084088594E+03  0.17300000000E+03 0. -1.
</event>
<event>
 6   0  0.4500850E-05  0.4887690E+03  0.7546771E-02  0.1043931E+00
       21   -1    0    0  502  503  0.00000000000E+00  0.00000000000E+00  0.14078617823E+04  0.14078617823E+04  0.00000000000E+00 0.  1.
       21   -1    0    0  501  504  0.00000000000E+00  0.00000000000E+00 -0.36066856289E+03  0.36066856289E+03  0.00000000000E+00 0. -1.
        6    1    1    2  501    0 -0.11473712203E+02  0.25460904180E+02  0.76466375382E+02  0.19119626115E+03  0.17300000000E+03 0. -1.
       -6    1    1    2    0  504  0.26615587144E+03 -0.23592334958E+03  0.12795733767E+03  0.41569322227E+03  0.17300000000E+03 0. -1.
        6    1    1    2  502    0 -0.11803374437E+03  0.61551663236E+02  0.86741870573E+03  0.89446340512E+03  0.17300000000E+03 0.  1.
       -6    1    1    2    0  503 -0.13664841487E+03  0.14891078216E+03 -0.24649199337E+02  0.26717745668E+03  0.17300000000E+03 0. -1.
</event>
<event>
 6   0  0.4500850E-05  0.2785799E+03  0.7546771E-02  0.1114038E+00
       21   -1    0    0  504  503  0.00000000000E+00  0.00000000000E+00  0.18146614225E+04  0.18146614225E+04  0.00000000000E+00 0. -1.
       21   -1    0    0  501  504  0.00000000000E+00  0.00000000000E+00 -0.17114215302E+03  0.17114215302E+03  0.00000000000E+00 0. -1.
        6    1    1    2  501    0 -0.23809047181E+03  0.51204291733E+02  0.24116666245E+03  0.38392617954E+03  0.17300000000E+03 0. -1.
       -6    1    1    2    0  503  0.17704653242E+03  0.16754664494E+03  0.55342380766E+03  0.62898669601E+03  0.17300000000E+03 0. -1.
        6    1    1    2  502    0  0.38816092603E+02  0.45827058680E+01  0.44885319505E+03  0.48262395397E+03  0.17300000000E+03 0. -1.
       -6    1    1    2    0  502  0.22227846786E+02 -0.22333364254E+03  0.40007560434E+03  0.49026674602E+03  0.17300000000E+03 0. -1.
</event>
<event>
 6   0  0.4500850E-05  0.4430547E+03  0.7546771E-02  0.1054310E+00
       21   -1    0    0  502  503  0.00000000000E+00  0.00000000000E+00  0.31771275597E+03  0.31771275597E+03  0.00000000000E+00 0. -1.
       21   -1    0    0  503  504  0.00000000000E+00  0.00000000000E+00 -0.11556455650E+04  0.11556455650E+04  0.00000000000E+00 0.  1.
        6    1    1    2  501    0 -0.70202202444E+02 -0.34197573245E+03 -0.60303119718E+03  0.71794942411E+03  0.17300000000E+03 0. -1.
       -6    1    1    2    0  504  0.30713558577E+02  0.12877184750E+03 -0.24667892387E+03  0.32909725443E+03  0.17300000000E+03 0.  1.
        6    1    1    2  502    0  0.20228638107E+02  0.12639671615E+03  0.64707865401E+02  0.22472524446E+03  0.17300000000E+03 0.  1.
       -6    1    1    2    0  501  0.19260005760E+02  0.86807168811E+02 -0.52930553425E+02  0.20158639802E+03  0.17300000000E+03 0.  1.
</event>
<event>
 6   0  0.4500850E-05  0.2162066E+03  0.7546771E-02  0.1138017E+00
       21   -1    0    0  504  503  0.00000000000E+00  0.00000000000E+00  0.21586093201E+04  0.21586093201E+04  0.00000000000E+00 0.  1.
       21   -1    0    0  502  504  0.00000000000E+00  0.00000000000E+00 -0.20991844728E+03  0.20991844728E+03  0.00000000000E+00 0.  1.
        6    1    1    2  501    0  0.70878699319E+02 -0.19403896915E+03  0.12893925290E+04  0.13172459927E+04  0.17300000000E+03 0.  1.
       -6    1    1    2    0  503  0.37233181052E+02  0.84525876600E+02  0.58038299288E+03  0.61262088768E+03  0.17300000000E+03 0. -1.
        6    1    1    2  502    0  0.45872699447E+02  0.86144306088E+02  0.40893096261E+02  0.20279642834E+03  0.17300000000E+03 0.  1.
       -6    1    1    2    0  501 -0.15398457982E+03  0.23368786464E+02  0.38022254712E+02  0.23586445865E+03  0.17300000000E+03 0.  1.
</event>
<event>
 6   0  0.4500850E-05  0.3122072E+03  0.7546771E-02  0.1086863E+00
       21   -1    0    0  501  503  0.00000000000E+00  0.00000000000E+00  0.58559335995E+03  0.58559335995E+03  0.00000000000E+00 0. -1.
       21   -1    0    0  503  504  0.00000000000E+00  0.00000000000E+00 -0.85709407750E+03  0.85709407750E+03  0.00000000000E+00 0.  1.
        6    1    1    2  501    0  0.58916014014E+02 -0.20521110168E+03  0.41186931299E+02  0.27786337699E+03  0.17300000000E+03 0. -1.
       -6    1    1    2    0  504  0.32520745041E+03  0.23544836654E+03 -0.24791006152E+03  0.50257757383E+03  0.17300000000E+03 0.  1.
        6    1    1    2  502    0 -0.14938304798E+03 -0.59077171729E+02  0.16654808734E+03  0.28891637655E+03  0.17300000000E+03 0. -1.
       -6    1    1    2    0  502 -0.23474041644E+03  0.28839906872E+02 -0.23132567466E+03  0.37333011009E+03  0.17300000000E+03 0.  1.
</event>
<event>
 6   0  0.4500850E-05  0.2472649E+03  0.7546771E-02  0.1120872E+00
       21   -1    0    0  501  503  0.00000000000E+00  0.00000000000E+00  0.15667134595E+04  0.15667134595E+04  0.00000000000E+00 0.  1.
       21   -1    0    0  502  504  0.00000000000E+00  0.00000000000E+00 -0.44820020050E+03  0.44820020050E+03  0.00000000000E+00 0. -1.
        6    1    1    2  501    0 -0.18638358045E+03 -0.75332650084E+02 -0.14308522882E+03  0.30135731273E+03  0.17300000000E+03 0.  1.
       -6    1    1    2    0  504  0.16622681616E+03 -0.83046842996E+02 -0.10469664744E+03  0.27462432618E+03  0.17300000000E+03 0. -1.
        6    1    1    2  502    0 -0.92499615816E+02  0.10347931842E+03  0.88480597250E+03  0.91218131818E+03  0.17300000000E+03 0.  1.
       -6    1    1    2    0  503  0.11265638010E+03  0.54900174663E+02  0.48148916279E+03  0.52675070293E+03  0.17300000000E+03 0. -1.
</event>
<event>
 6   0  0.4500850E-05  0.9543652E+03  0.7546771E-02  0.9366315E-01
       21   -1    0    0  501  503  0.00000000000E+00  0.00000000000E+00  0.55571519500E+03  0.55571519500E+03  0.00000000000E+00 0.  1.
       21   -1    0    0  502  504  0.00000000000E+00  0.00000000000E+00 -0.19398510632E+04  0.19398510632E+04  0.00000000000E+00 0.  1.
        6    1    1    2  501    0  0.68738290184E+01 -0.25066173160E+03  0.36925968981E+02  0.30687306887E+03  0.17300000000E+03 0. -1.
       -6    1    1    2    0  503 -0.11548134242E+03 -0.57130130505E+03 -0.20236922358E+03  0.64078344567E+03  0.17300000000E+03 0.  1.
        6    1    1    2  502    0  0.17420118042E+01  0.14450035067E+03 -0.45003977968E+03  0.50333705332E+03  0.17300000000E+03 0. -1.
       -6    1    1    2    0  504  0.10686550160E+03  0.67746268598E+03 -0.76865283396E+03  0.10445726904E+04  0.17300000000E+03 0.  1.
</event>
<event>
 6   0  0.4500850E-05  0.2313237E+03  0.7546771E-02  0.1129446E+00
       21   -1    0    0  501  503  0.00000000000E+00  0.00000000000E+00  0.11490090365E+04  0.11490090365E+04  0.00000000000E+00 0. -1.
       21   -1    0    0  503  504  0.00000000000E+00  0.00000000000E+00 -0.57268236877E+03  0.57268236877E+03  0.00000000000E+00 0.  1.
        6    1    1    2  501    0  0.14807008824E+03 -0.15913499627E+03  0.85507513238E+03  0.89907239980E+03  0.17300000000E+03 0. -1.
       -6    1    1    2    0  502 -0.78707502445E+02 -0.51717566453E+02  0.12255306713E+03  0.23198670627E+03  0.17300000000E+03 0.  1.
        6    1    1    2  502    0 -0.78531923782E+02  0.17090514548E+03 -0.23345870045E+03  0.34613262865E+03  0.17300000000E+03 0. -1.
       -6    1    1    2    0  504  0.91693379837E+01  0.39947417243E+02 -0.16784283129E+03  0.24449967059E+03  0.17300000000E+03 0.  1.
</event>
<event>
 6   0  0.4500850E-05  0.2080697E+03  0.7546771E-02  0.1146657E+00
       21   -1    0    0  501  503  0.00000000000E+00  0.00000000000E+00  0.95783020292E+03  0.95783020292E+03  0.00000000000E+00 0.  1.
       21   -1    0    0  502  504  0.00000000000E+00  0.00000000000E+00 -0.13954872570E+04  0.13954872570E+04  0.00000000000E+00 0.  1.
        6    1    1    2  501    0  0.15333737518E+03  0.19510794779E+02  0.32167484968E+03  0.39660651868E+03  0.17300000000E+03 0.  1.
       -6    1    1    2    0  503 -0.67407511790E+02  0.11327411289E+03  0.15080745229E+03  0.26466334269E+03  0.17300000000E+03 0. -1.
        6    1    1    2  502    0 -0.81191827034E+02 -0.63129028912E+02  0.35776596189E+03  0.41049101154E+03  0.17300000000E+03 0.  1.
       -6    1    1    2    0  504 -0.47380363537E+01 -0.69655878753E+02 -0.12679053179E+04  0.12815565870E+04  0.17300000000E+03 0.  1.
</event>
<event>
 6   0  0.4500850E-05  0.2364797E+03  0.7546771E-02  0.1125319E+00
       21   -1    0    0  502  503  0.00000000000E+00  0.00000000000E+00  0.17855041495E+04  0.17855041495E+04  0.00000000000E+00 0.  1.
       21   -1    0    0  501  504  0.00000000000E+00  0.00000000000E+00 -0.14966388092E+03  0.14966388092E+03  0.00000000000E+00 0.  1.
        6    1    1    2  501    0  0.20557043116E+03 -0.17878900550E+03  0.57254385546E+03  0.65723677399E+03  0.17300000000E+03 0.  1.
       -6    1    1    2    0  503 -0.79806990258E+02 -0.46685430933E+02  0.12759539653E+03  0.23400485117E+03  0.17300000000E+03 0. -1.
        6    1    1    2  502    0 -0.21810217405E+02  0.12595556547E+03  0.61983556482E+03  0.65609878636E+03  0.17300000000E+03 0.  1.
       -6    1    1    2    0  504 -0.10395322350E+03  0.99518870966E+02  0.31586545177E+03  0.38782761889E+03  0.17300000000E+03 0. -1.
</event>
<event>
 6   0  0.4500850E-05  0.7298646E+03  0.7546771E-02  0.1008509E+00
       21   -1    0    0  502  503  0.00000000000E+00  0.00000000000E+00  0.19839416133E+04  0.19839416133E+04  0.00000000000E+00 0. -1.
       21   -1    0    0  503  504  0.00000000000E+00  0.00000000000E+00 -0.86748377771E+03  0.86748377771E+03  0.00000000000E+00 0. -1.
        6    1    1    2  501    0  0.10395337781E+03  0.22092680778E+03 -0.36375094847E+03  0.47101880182E+03  0.17300000000E+03 0. -1.
       -6    1    1    2    0  501 -0.28790704205E+03 -0.51910863855E+03  0.91217353281E+03  0.11019772218E+04  0.17300000000E+03 0. -1.
        6    1    1    2  502    0  0.55749084715E+02 -0.52146799138E+02  0.78918425360E+03  0.81152204852E+03  0.17300000000E+03 0.  1.
       -6    1    1    2    0  504  0.12820457953E+03  0.35032862991E+03 -0.22114900234E+03  0.46690731883E+03  0.17300000000E+03 0. -1.
</event>
<event>
 6   0  0.4500850E-05  0.5044643E+03  0.7546771E-02  0.1017391E+00
        2   -1    0    0  502    0  0.00000000000E+00  0.00000000000E+00  0.17831770521E+04  0.17831770521E+04  0.00000000000E+00 0.  1.
       -2   -1    0    0    0  501  0.00000000000E+00  0.00000000000E+00 -0.19337026912E+03  0.19337026912E+03  0.00000000000E+00 0. -1.
        6    1    1    2  502    0  0.12781891987E+03 -0.80534568168E+02  0.13087620573E+03  0.26435028688E+03  0.17300000000E+03 0. -1.
       -6    1    1    2    0  503 -0.22562942447E+01  0.49672055497E+02  0.29163248734E+03  0.34271111980E+03  0.17300000000E+03 0.  1.
        6    1    1    2  503    0  0.85735229198E+02  0.18093800336E+02  0.10570787622E+04  0.10747196959E+04  0.17300000000E+03 0.  1.
       -6    1    1    2    0  501 -0.21129785482E+03  0.12768712336E+02  0.11021932766E+03  0.29476621865E+03  0.17300000000E+03 0.  1.
</event>
<event>
 6   0  0.4500850E-05  0.2613139E+03  0.7546771E-02  0.1112499E+00
       21   -1    0    0  502  503  0.00000000000E+00  0.00000000000E+00  0.13528821118E+04  0.13528821118E+04  0.00000000000E+00 0. -1.
       21   -1    0    0  501  504  0.00000000000E+00  0.00000000000E+00 -0.49389665957E+03  0.49389665957E+03  0.00000000000E+00 0.  1.
        6    1    1    2  501    0 -0.30834051665E+03 -0.14416015063E+03 -0.16329331246E+03  0.41527066972E+03  0.17300000000E+03 0.  1.
       -6    1    1    2    0  504  0.83343869234E+02  0.12249843093E+03  0.49554418501E+03  0.54538528163E+03  0.17300000000E+03 0. -1.
        6    1    1    2  502    0  0.15188553237E+03  0.86546797954E+02 -0.71193885696E+02  0.25604127116E+03  0.17300000000E+03 0.  1.
       -6    1    1    2    0  503  0.73111115047E+02 -0.64885078253E+02  0.59792846538E+03  0.63008154887E+03  0.17300000000E+03 0. -1.
</event>
<event>
 6   0  0.4500850E-05  0.2469621E+03  0.7546771E-02  0.1126757E+00
       21   -1    0    0  504  503  0.00000000000E+00  0.00000000000E+00  0.13620226673E+04  0.13620226673E+04  0.00000000000E+00 0. -1.
       21   -1    0    0  501  504  0.00000000000E+00  0.00000000000E+00 -0.19189587449E+03  0.19189587449E+03  0.00000000000E+00 0. -1.
        6    1    1    2  501    0 -0.14375753697E+03  0.11554675883E+03  0.33241420159E+03  0.41766671442E+03  0.17300000000E+03 0. -1.
       -6    1    1    2    0  502 -0.45570091905E+02  0.40051070683E+02  0.48240613810E+02  0.18957024650E+03  0.17300000000E+03 0. -1.
        6    1    1    2  502    0  0.17368762832E+03  0.52132709634E+02  0.40910473030E+03  0.47977170821E+03  0.17300000000E+03 0. -1.
       -6    1    1    2    0  503  0.15640000555E+02 -0.20773053914E+03  0.38036724710E+03  0.46690987265E+03  0.17300000000E+03 0. -1.
</event>
<event>
 6   0  0.4500850E-05  0.2517354E+03  0.7546771E-02  0.1114153E+00
       21   -1    0    0  501  503  0.00000000000E+00  0.00000000000E+00  0.10660451627E+04  0.10660451627E+04  0.00000000000E+00 0.  1.
       21   -1    0    0  502  504  0.00000000000E+00  0.00000000000E+00 -0.40304910984E+03  0.40304910984E+03  0.00000000000E+00 0. -1.
        6    1    1    2  501    0  0.26481706808E+02 -0.68291162865E+02 -0.13171283273E+03  0.22943895490E+03  0.17300000000E+03 0.  1.
       -6    1    1    2    0  504  0.28959301155E+03  0.32396062708E+02  0.49369182011E+02  0.34246157938E+03  0.17300000000E+03 0. -1.
        6    1    1    2  502    0 -0.22141871859E+03  0.61185025932E+01  0.31057018214E+03  0.41886337039E+03  0.17300000000E+03 0. -1.
       -6    1    1    2    0  503 -0.94655999774E+02  0.29776597563E+02  0.43476952145E+03  0.47833036788E+03  0.17300000000E+03 0.  1.
</event>
<event>
 6   0  0.4500850E-05  0.3503108E+03  0.7546771E-02  0.1069976E+00
       21   -1    0    0  504  503  0.00000000000E+00  0.00000000000E+00  0.10276870498E+04  0.10276870498E+04  0.00000000000E+00 0.  1.
       21   -1    0    0  501  504  0.00000000000E+00  0.00000000000E+00 -0.88420940433E+03  0.88420940433E+03  0.00000000000E+00 0.  1.
        6    1    1    2  501    0  0.50995692685E+03  0.19575824143E+03 -0.33502249827E+03  0.66373671789E+03  0.17300000000E+03 0.  1.
       -6    1    1    2    0  502 -0.76687825869E+02  0.10499439548E+03  0.21855840653E+02  0.21751212263E+03  0.17300000000E+03 0. -1.
        6    1    1    2  502    0 -0.34921997090E+03 -0.81014367130E+02 -0.92522250239E+02  0.40866524509E+03  0.17300000000E+03 0.  1.
       -6    1    1    2    0  503 -0.84049130078E+02 -0.21973826978E+03  0.54916655335E+03  0.62198236855E+03  0.17300000000E+03 0. -1.
</event>
<event>
 6   0  0.4500850E-05  0.3561107E+03  0.7546771E-02  0.1083974E+00
       21   -1    0    0  504  503  0.00000000000E+00  0.00000000000E+00  0.24452210324E+04  0.24452210324E+04  0.00000000000E+00 0. -1.
       21   -1    0    0  502  504  0.00000000000E+00  0.00000000000E+00 -0.18467027773E+03  0.18467027773E+03  0.00000000000E+00 0.  1.
        6    1    1    2  501    0  0.61675223164E+02 -0.26251821099E+02  0.23686270395E+03  0.30087527613E+03  0.17300000000E+03 0.  1.
       -6    1    1    2    0  503 -0.23401472929E+03 -0.21853174454E+03  0.16604972559E+04  0.16999115135E+04  0.17300000000E+03 0. -1.
        6    1    1    2  502    0  0.20658121221E+03  0.17505619304E+03  0.19669488582E+03  0.37674705847E+03  0.17300000000E+03 0.  1.
       -6    1    1    2    0  501 -0.34241706081E+02  0.69727372608E+02  0.16649590897E+03  0.25235746200E+03  0.17300000000E+03 0. -1.
</event>
<event>
 6   0  0.4500850E-05  0.3172003E+03  0.7546771E-02  0.1086262E+00
       21   -1    0    0  501  503  0.00000000000E+00  0.00000000000E+00  0.33547853147E+03  0.33547853147E+03  0.00000000000E+00 0.  1.
       21   -1    0    0  502  504  0.00000000000E+00  0.00000000000E+00 -0.59022333726E+03  0.59022333726E+03  0.00000000000E+00 0. -1.
        6    1    1    2  501    0  0.38166808791E+02 -0.39219955150E+02 -0.60352803851E+02  0.19122335398E+03  0.17300000000E+03 0. -1.
       -6    1    1    2    0  503  0.10969903187E+03 -0.62416492403E+02  0.25884608721E+01  0.21416207938E+03  0.17300000000E+03 0.  1.
        6    1    1    2  502    0 -0.62173687785E+02 -0.64789164563E+02  0.51853407377E+01  0.19498484827E+03  0.17300000000E+03 0.  1.
       -6    1    1    2    0  504 -0.85692152872E+02  0.16642561212E+03 -0.20216580355E+03  0.32533158709E+03  0.17300000000E+03 0. -1.
</event>
<event>
 6   0  0.4500850E-05  0.2976931E+03  0.7546771E-02  0.1096044E+00
       21   -1    0    0  501  503  0.00000000000E+00  0.00000000000E+00  0.88588125972E+03  0.88588125972E+03  0.00000000000E+00 0.  1.
       21   -1    0    0  502  504  0.00000000000E+00  0.00000000000E+00 -0.94869636788E+03  0.94869636788E+03  0.00000000000E+00 0.  1.
        6    1    1    2  501    0  0.12218490629E+03 -0.11879848758E+03 -0.67386049090E+03  0.71628150414E+03  0.17300000000E+03 0.  1.
       -6    1    1    2    0  504  0.20752786487E+02 -0.72891370138E+02  0.75352883162E+02  0.20334917504E+03  0.17300000000E+03 0.  1.
        6    1    1    2  502    0 -0.27217288206E+03  0.28806245626E+03  0.52233260083E+03  0.67809910952E+03  0.17300000000E+03 0.  1.
       -6    1    1    2    0  503  0.12923518929E+03 -0.96372598542E+02  0.13359898742E+02  0.23684783891E+03  0.17300000000E+03 0. -1.
</event>
<event>
 6   0  0.4500850E-05  0.7128988E+03  0.7546771E-02  0.9823477E-01
        2   -1    0    0  503    0  0.00000000000E+00  0.00000000000E+00  0.30682030440E+04  0.30682030440E+04  0.00000000000E+00 0. -1.
       -2   -1    0    0    0  501  0.00000000000E+00  0.00000000000E+00 -0.17562167597E+03  0.17562167597E+03  0.00000000000E+00 0.  1.
        6    1    1    2  502    0  0.11377439995E+03  0.16206006069E+03  0.24961378648E+03  0.36255223038E+03  0.17300000000E+03 0.  1.
       -6    1    1    2    0  502  0.54112353569E+02 -0.37304981387E+02  0.49447119779E+02  0.19155632618E+03  0.17300000000E+03 0.  1.
        6    1    1    2  503    0  0.88354992368E+02  0.17479071852E+03  0.68268523380E+03  0.73099010144E+03  0.17300000000E+03 0.  1.
       -6    1    1    2    0  501 -0.25624174589E+03 -0.29954579782E+03  0.19108352280E+04  0.19587260620E+04  0.17300000000E+03 0. -1.
</event>
<event>
 6   0  0.4500850E-05  0.1951557E+03  0.7546771E-02  0.1155341E+00
       21   -1    0    0  504  503  0.00000000000E+00  0.00000000000E+00  0.28034456389E+03  0.28034456389E+03  0.00000000000E+00 0.  1.
       21   -1    0    0  502  504  0.00000000000E+00  0.00000000000E+00 -0.10086612062E+04  0.10086612062E+04  0.00000000000E+00 0. -1.
        6    1    1    2  501    0 -0.40719662407E+01  0.57142353246E+02 -0.15926346331E+03  0.24202413142E+03  0.17300000000E+03 0. -1.
       -6    1    1    2    0  503  0.11106790278E+03  0.84890782264E+02  0.11724045438E+03  0.25142960861E+03  0.17300000000E+03 0.  1.
        6    1    1    2  502    0 -0.17617420455E+02 -0.55600981187E+02 -0.38999644215E+03  0.43061359420E+03  0.17300000000E+03 0. -1.
       -6    1    1    2    0  501 -0.89378516085E+02 -0.86432154323E+02 -0.29629719121E+03  0.36493843584E+03  0.17300000000E+03 0.  1.
</event>
<event>
 6   0  0.4500850E-05  0.5436807E+03  0.7546771E-02  0.1035545E+00
       21   -1    0    0  501  503  0.00000000000E+00  0.00000000000E+00  0.14508424276E+04  0.14508424276E+04  0.00000000000E+00 0.  1.
       21   -1    0    0  502  504  0.00000000000E+00  0.00000000000E+00 -0.36707463231E+03  0.36707463231E+03  0.00000000000E+00 0.  1.
        6    1    1    2  501    0 -0.29455680686E+03 -0.36466173295E+03  0.18953406364E+03  0.53441000480E+03  0.17300000000E+03 0.  1.
       -6    1    1    2    0  503  0.30804617231E+02  0.34943916652E+02  0.58708279447E+03  0.61381203094E+03  0.17300000000E+03 0.  1.
        6    1    1    2  502    0  0.42515080502E+02  0.19446836750E+03  0.22667276734E+03  0.34775713003E+03  0.17300000000E+03 0.  1.
       -6    1    1    2    0  504  0.22123710913E+03  0.13524944880E+03  0.80478169811E+02  0.32193789412E+03  0.17300000000E+03 0.  1.
</event>
<event>
 6   0  0.4500850E-05  0.2487298E+03  0.7546771E-02  0.1116246E+00
       21   -1    0    0  502  503  0.00000000000E+00  0.00000000000E+00  0.43624081978E+03  0.43624081978E+03  0.00000000000E+00 0. -1.
       21   -1    0    0  501  504  0.00000000000E+00  0.00000000000E+00 -0.87253411991E+03  0.87253411991E+03  0.00000000000E+00 0.  1.
        6    1    1    2  501    0  0.14864945829E+03 -0.79013975979E+02 -0.35593858865E+03  0.43007109731E+03  0.17300000000E+03 0.  1.
       -6    1    1    2    0  504 -0.27760507724E+03  0.41228252178E+02  0.69230805037E+02  0.33687720620E+03  0.17300000000E+03 0. -1.
        6    1    1    2  502    0  0.10586223916E+03 -0.12496568081E+03  0.34129575136E+02  0.24065964132E+03  0.17300000000E+03 0. -1.
       -6    1    1    2    0  503  0.23093379791E+02  0.16275140462E+03 -0.18371509165E+03  0.30116699486E+03  0.17300000000E+03 0.  1.
</event>
<event>
 6   0  0.4500850E-05  0.2123631E+03  0.7546771E-02  0.1143648E+00
       21   -1    0    0  501  503  0.00000000000E+00  0.00000000000E+00  0.41511086879E+03  0.41511086879E+03  0.00000000000E+00 0. -1.
       21   -1    0    0  502  504  0.00000000000E+00  0.00000000000E+00 -0.48058565364E+03  0.48058565364E+03  0.00000000000E+00 0. -1.
        6    1    1    2  501    0 -0.12324536300E+03 -0.86135119026E+02  0.79353256841E+02  0.24255848285E+03  0.17300000000E+03 0. -1.
       -6    1    1    2    0  503  0.54371059746E+02  0.35310763393E+02 -0.62297785425E+02  0.19496942380E+03  0.17300000000E+03 0. -1.
        6    1    1    2  502    0  0.22708550903E+02  0.14591217727E+03  0.24752946140E+02  0.22879630701E+03  0.17300000000E+03 0. -1.
       -6    1    1    2    0  504  0.46165752346E+02 -0.95087821634E+02 -0.10728320241E+03  0.22937230877E+03  0.17300000000E+03 0. -1.
</event>
<event>
 6   0  0.4500850E-05  0.4075674E+03  0.7546771E-02  0.1059437E+00
       21   -1    0    0  504  503  0.00000000000E+00  0.00000000000E+00  0.32772288416E+03  0.32772288416E+03  0.00000000000E+00 0.  1.
       21   -1    0    0  501  504  0.00000000000E+00  0.00000000000E+00 -0.28981541862E+04  0.28981541862E+04  0.00000000000E+00 0.  1.
        6    1    1    2  501    0  0.39160705511E+03 -0.21550160445E+03 -0.13503687081E+04  0.14329067223E+04  0.17300000000E+03 0.  1.
       -6    1    1    2    0  502 -0.27429452598E+03  0.75328894791E+02 -0.53656890967E+03  0.63146426993E+03  0.17300000000E+03 0.  1.
        6    1    1    2  502    0 -0.28302380556E+02  0.28447241525E+03 -0.81858230642E+03  0.88415585288E+03  0.17300000000E+03 0.  1.
       -6    1    1    2    0  503 -0.89010148578E+02 -0.14429970559E+03  0.13508862216E+03  0.27735022520E+03  0.17300000000E+03 0.  1.
</event>
<event>
 6   0  0.4500850E-05  0.8429737E+03  0.7546771E-02  0.9592131E-01
       21   -1    0    0  501  503  0.00000000000E+00  0.00000000000E+00  0.69655333490E+03  0.69655333490E+03  0.00000000000E+00 0. -1.
       21   -1    0    0  502  504  0.00000000000E+00  0.00000000000E+00 -0.87651241246E+03  0.87651241246E+03  0.00000000000E+00 0. -1.
        6    1    1    2  501    0 -0.13993727418E+03 -0.57034811247E+03  0.20598874363E+03  0.64594099778E+03  0.17300000000E+03 0. -1.
       -6    1    1    2    0  504  0.83927001450E+01  0.42055123634E+02 -0.35384922113E+02  0.18171451112E+03  0.17300000000E+03 0.  1.
        6    1    1    2  502    0  0.11058596559E+03  0.36483682096E+03 -0.21309790069E+03  0.46976044639E+03  0.17300000000E+03 0. -1.
       -6    1    1    2    0  503  0.20958608445E+02  0.16345616788E+03 -0.13746499838E+03  0.27564979206E+03  0.17300000000E+03 0. -1.
</event>
<event>
 6   0  0.4500850E-05  0.2099570E+03  0.7546771E-02  0.1142162E+00
       21   -1    0    0  501  503  0.00000000000E+00  0.00000000000E+00  0.11607694629E+04  0.11607694629E+04  0.00000000000E+00 0. -1.
       21   -1    0    0  503  504  0.00000000000E+00  0.00000000000E+00 -0.24309136583E+03  0.24309136583E+03  0.00000000000E+00 0. -1.
        6    1    1    2  501    0  0.15142639062E+02 -0.57957696984E+02  0.33713021460E+01  0.18310860121E+03  0.17300000000E+03 0. -1.
       -6    1    1    2    0  502  0.51018552614E+02  0.47077196805E+02  0.63791002031E+03  0.66458810490E+03  0.17300000000E+03 0. -1.
        6    1    1    2  502    0  0.12216809964E+03  0.63535035892E+02  0.11525510187E+03  0.24934811782E+03  0.17300000000E+03 0. -1.
       -6    1    1    2    0  504 -0.18832929131E+03 -0.52654535713E+02  0.16114167273E+03  0.30681600478E+03  0.17300000000E+03 0. -1.
</event>
<event>
 6   0  0.4500850E-05  0.2816045E+03  0.7546771E-02  0.1103593E+00
       21   -1    0    0  504  503  0.00000000000E+00  0.00000000000E+00  0.88182126807E+03  0.88182126807E+03  0.00000000000E+00 0.  1.
       21   -1    0    0  501  504  0.00000000000E+00  0.00000000000E+00 -0.52615127348E+03  0.52615127348E+03  0.00000000000E+00 0. -1.
        6    1    1    2  501    0 -0.74675393814E+02 -0.16555770689E+03 -0.14956985776E+03  0.29203751660E+03  0.17300000000E+03 0. -1.
       -6    1    1    2    0  502  0.10197497009E+03  0.99626982692E+02  0.16275123955E+02  0.22476278576E+03  0.17300000000E+03 0. -1.
        6    1    1    2  502    0 -0.20076168510E+03 -0.78273903607E+02 -0.50948417421E+02  0.28099252557E+03  0.17300000000E+03 0. -1.
       -6    1    1    2    0  503  0.17346210883E+03  0.14420462780E+03  0.53991314582E+03  0.61017971361E+03  0.17300000000E+03 0.  1.
</event>
<event>
 6   0  0.4500850E-05  0.4088165E+03  0.7546771E-02  0.1060033E+00
       21   -1    0    0  504  503  0.00000000000E+00  0.00000000000E+00  0.92848023300E+03  0.92848023300E+03  0.00000000000E+00 0. -1.
       21   -1    0    0  501  504  0.00000000000E+00  0.00000000000E+00 -0.34881608690E+03  0.34881608690E+03  0.00000000000E+00 0.  1.
        6    1    1    2  501    0  0.34425244838E+01  0.16765375841E+03  0.14489254437E+03  0.28114495033E+03  0.17300000000E+03 0. -1.
       -6    1    1    2    0  503 -0.67039462516E+02  0.86797971428E+02  0.34860173967E+03  0.40432703382E+03  0.17300000000E+03 0. -1.
        6    1    1    2  502    0  0.59791506628E+02 -0.33885680048E+03  0.11450325465E+02  0.38530386119E+03  0.17300000000E+03 0.  1.
       -6    1    1    2    0  502  0.38054314035E+01  0.84405070645E+02  0.74719536605E+02  0.20652047455E+03  0.17300000000E+03 0.  1.
</event>
<event>
 6   0  0.4500850E-05  0.3383477E+03  0.7546771E-02  0.1081326E+00
       21   -1    0    0  501  503  0.00000000000E+00  0.00000000000E+00  0.16976788180E+04  0.16976788180E+04  0.00000000000E+00 0.  1.
       21   -1    0    0  502  504  0.00000000000E+00  0.00000000000E+00 -0.63972038337E+03  0.63972038337E+03  0.00000000000E+00 0. -1.
        6    1    1    2  501    0  0.22647975694E+03 -0.21598009901E+03 -0.16189589089E+03  0.39252995167E+03  0.17300000000E+03 0.  1.
       -6    1    1    2    0  504  0.17979162877E+03  0.70041702398E+02 -0.23068417860E+03  0.34695109181E+03  0.17300000000E+03 0. -1.
        6    1    1    2  502    0 -0.40963684515E+03  0.18609173458E+03  0.11756083898E+04  0.12705969324E+04  0.17300000000E+03 0.  1.
       -6    1    1    2    0  503  0.33654594445E+01 -0.40153337972E+02  0.27493011435E+03  0.32732122547E+03  0.17300000000E+03 0. -1.
</event>
<event>
 6   0  0.4500850E-05  0.2671121E+03  0.7546771E-02  0.1112904E+00
       21   -1    0    0  501  503  0.00000000000E+00  0.00000000000E+00  0.21187892866E+03  0.21187892866E+03  0.00000000000E+00 0. -1.
       21   -1    0    0  502  504  0.00000000000E+00  0.00000000000E+00 -0.19247595535E+04  0.19247595535E+04  0.00000000000E+00 0.  1.
        6    1    1    2  501    0 -0.10802808730E+03  0.21958782918E+02  0.80037203438E+01  0.20529324230E+03  0.17300000000E+03 0. -1.
       -6    1    1    2    0  504 -0.89532829633E+02  0.19916677683E+03 -0.34402748804E+03  0.44268210388E+03  0.17300000000E+03 0.  1.
        6    1    1    2  502    0 -0.24504610558E+02 -0.20104180893E+03 -0.48641784613E+03  0.55457155166E+03  0.17300000000E+03 0.  1.
       -6    1    1    2    0  503  0.22206552749E+03 -0.20083750822E+02 -0.89043901104E+03  0.93409158434E+03  0.17300000000E+03 0.  1.
</event>
<event>
 6   0  0.4500850E-05  0.3682076E+03  0.7546771E-02  0.1057820E+00
       21   -1    0    0  502  503  0.00000000000E+00  0.00000000000E+00  0.11959630843E+04  0.11959630843E+04  0.00000000000E+00 0. -1.
       21   -1    0    0  503  504  0.00000000000E+00  0.00000000000E+00 -0.97350245228E+03  0.97350245228E+03  0.00000000000E+00 0. -1.
        6    1    1    2  501    0  0.30379112735E+03  0.24885343113E+03 -0.16445930216E+03  0.45955733190E+03  0.17300000000E+03 0.  1.
       -6    1    1    2    0  501 -0.12486057872E+03 -0.36323523541E+03  0.69817684673E+03  0.81542008172E+03  0.17300000000E+03 0. -1.
        6    1    1    2  502    0 -0.21940541869E+03 -0.73066434169E+02  0.17941520384E+03  0.33999449543E+03  0.17300000000E+03 0.  1.
       -6    1    1    2    0  504  0.40474870068E+02  0.18744823845E+03 -0.49067211637E+03  0.55449362755E+03  0.17300000000E+03 0. -1.
</event>
<event>
 6   0  0.4500850E-05  0.3858951E+03  0.7546771E-02  0.1052083E+00
       21   -1    0    0  504  503  0.00000000000E+00  0.00000000000E+00  0.85754352957E+03  0.85754352957E+03  0.00000000000E+00 0.  1.
       21   -1    0    0  501  504  0.00000000000E+00  0.00000000000E+00 -0.56896383640E+03  0.56896383640E+03  0.00000000000E+00 0. -1.
        6    1    1    2  501    0 -0.21391244718E+03  0.46547619035E+02  0.82335737485E+02  0.29091818362E+03  0.17300000000E+03 0.  1.
       -6    1    1    2    0  502 -0.23021228090E+03  0.22513249023E+02 -0.24252027910E+03  0.37715994808E+03  0.17300000000E+03 0. -1.
        6    1    1    2  502    0  0.22574186502E+03 -0.95441544719E+02  0.35160193900E+03  0.46219195318E+03  0.17300000000E+03 0.  1.
       -6    1    1    2    0  503  0.21838286306E+03  0.26380676661E+02  0.97162295797E+02  0.29623728108E+03  0.17300000000E+03 0. -1.
</event>
<event>
 6   0  0.4500850E-05  0.3023090E+03  0.7546771E-02  0.1087783E+00
       21   -1    0    0  502  503  0.00000000000E+00  0.00000000000E+00  0.33187368709E+03  0.33187368709E+03  0.00000000000E+00 0. -1.
       21   -1    0    0  501  504  0.00000000000E+00  0.00000000000E+00 -0.69097710092E+03  0.69097710092E+03  0.00000000000E+00 0.  1.
        6    1    1    2  501    0 -0.75592082085E+02 -0.58406345589E+02 -0.10257168895E+03  0.22265537373E+03  0.17300000000E+03 0. -1.
       -6    1    1    2    0  503 -0.73835599339E+02  0.78397992074E+01 -0.94255725328E+02  0.21053811992E+03  0.17300000000E+03 0. -1.
        6    1    1    2  502    0  0.15417131507E+03 -0.75283088988E+02  0.89196271106E+02  0.25946350930E+03  0.17300000000E+03 0.  1.
       -6    1    1    2    0  504 -0.47436336482E+01  0.12584963537E+03 -0.25147227066E+03  0.33019378506E+03  0.17300000000E+03 0.  1.
</event>
<event>
 6   0  0.4500850E-05  0.2736617E+03  0.7546771E-02  0.1106724E+00
       21   -1    0    0  502  503  0.00000000000E+00  0.00000000000E+00  0.77242079595E+03  0.77242079595E+03  0.00000000000E+00 0.  1.
       21   -1    0    0  503  504  0.00000000000E+00  0.00000000000E+00 -0.79549790381E+03  0.79549790381E+03  0.00000000000E+00 0.  1.
        6    1    1    2  501    0 -0.29256215885E+03  0.41813523819E+02 -0.85202663332E+02  0.35288734945E+03  0.17300000000E+03 0.  1.
       -6    1    1    2    0  504  0.97647744883E+01  0.41294180041E+01 -0.40119724945E+03  0.43703619516E+03  0.17300000000E+03 0.  1.
        6    1    1    2  502    0 -0.62050688748E+02  0.10274403908E+03  0.17691809513E+03  0.27501934100E+03  0.17300000000E+03 0. -1.
       -6    1    1    2    0  501  0.34484807311E+03 -0.14868698091E+03  0.28640470980E+03  0.50297581414E+03  0.17300000000E+03 0.  1.
</event>
<event>
 6   0  0.4500850E-05  0.1078715E+04  0.7546771E-02  0.9384623E-01
        2   -1    0    0  503    0  0.00000000000E+00  0.00000000000E+00  0.29381782582E+04  0.29381782582E+04  0.00000000000E+00 0. -1.
       -2   -1    0    0    0  501  0.00000000000E+00  0.00000000000E+00 -0.42681670390E+03  0.42681670390E+03  0.00000000000E+00 0.  1.
        6    1    1    2  502    0 -0.31495154754E+03 -0.37677310755E+03 -0.74498515299E+02  0.52595767952E+03  0.17300000000E+03 0.  1.
       -6    1    1    2    0  501  0.37648259930E+03  0.88507989118E+02  0.44544737405E+03  0.61475619132E+03  0.17300000000E+03 0. -1.
        6    1    1    2  503    0 -0.12014471563E+03 -0.36714220754E+02  0.53470178199E+03  0.57586255510E+03  0.17300000000E+03 0. -1.
       -6    1    1    2    0  502  0.58613663871E+02  0.32497933918E+03  0.16057109136E+04  0.16484185362E+04  0.17300000000E+03 0. -1.
</event>
<event>
 6   0  0.4500850E-05  0.4838485E+03  0.7546771E-02  0.1043879E+00
       21   -1    0    0  504  503  0.00000000000E+00  0.00000000000E+00  0.76132866658E+03  0.76132866658E+03  0.00000000000E+00 0. -1.
       21   -1    0    0  501  504  0.00000000000E+00  0.00000000000E+00 -0.18274568077E+04  0.18274568077E+04  0.00000000000E+00 0. -1.
        6    1    1    2  501    0  0.29233099557E+03  0.57211840009E+01 -0.23131913579E+03  0.41100813313E+03  0.17300000000E+03 0. -1.
       -6    1    1    2    0  503  0.13199169344E+03 -0.58594497659E+02  0.34333851950E+03  0.41068900797E+03  0.17300000000E+03 0.  1.
        6    1    1    2  502    0 -0.53316607100E+02 -0.30138393428E+03  0.11116715156E+03  0.36873035137E+03  0.17300000000E+03 0. -1.
       -6    1    1    2    0  502 -0.37100608192E+03  0.35425724794E+03 -0.12893146764E+04  0.13983579818E+04  0.17300000000E+03 0. -1.
</event>
<event>
 6   0  0.4500850E-05  0.3026348E+03  0.7546771E-02  0.1088271E+00
       21   -1    0    0  504  503  0.00000000000E+00  0.00000000000E+00  0.77227796519E+03  0.77227796519E+03  0.00000000000E+00 0.  1.
       21   -1    0    0  501  504  0.00000000000E+00  0.00000000000E+00 -0.10814207465E+04  0.10814207465E+04  0.00000000000E+00 0. -1.
        6    1    1    2  501    0  0.31429339309E+02  0.20437844535E+03 -0.33362868695E+03  0.42894691169E+03  0.17300000000E+03 0.  1.
       -6    1    1    2    0  502  0.19177731650E+03 -0.16175137113E+03 -0.12491741626E+03  0.32935604757E+03  0.17300000000E+03 0. -1.
        6    1    1    2  502    0 -0.44106204512E+03 -0.11032761297E+03 -0.29340601596E+03  0.56808802137E+03  0.17300000000E+03 0. -1.
       -6    1    1    2    0  503  0.21785538931E+03  0.67700538751E+02  0.44280933783E+03  0.52730773109E+03  0.17300000000E+03 0.  1.
</event>
<event>
 6   0  0.4500850E-05  0.2720505E+03  0.7546771E-02  0.1111753E+00
       21   -1    0    0  501  503  0.00000000000E+00  0.00000000000E+00  0.15220152877E+04  0.15220152877E+04  0.00000000000E+00 0. -1.
       21   -1    0    0  503  504  0.00000000000E+00  0.00000000000E+00 -0.25773601041E+03  0.25773601041E+03  0.00000000000E+00 0. -1.
        6    1    1    2  501    0 -0.46857167967E+02 -0.92703905188E+02  0.22249159487E+03  0.30036830394E+03  0.17300000000E+03 0.  1.
       -6    1    1    2    0  502  0.35862241728E+02  0.19570651630E+03  0.82268275999E+03  0.86389991578E+03  0.17300000000E+03 0. -1.
        6    1    1    2  502    0  0.14398065338E+03 -0.19386635409E+03  0.58267601231E+01  0.29711536973E+03  0.17300000000E+03 0. -1.
       -6    1    1    2    0  504 -0.13298572714E+03  0.90863742972E+02  0.21327816236E+03  0.31836770871E+03  0.17300000000E+03 0. -1.
</event>
<event>
 6   0  0.4500850E-05  0.4024999E+03  0.7546771E-02  0.1051735E+00
       21   -1    0    0  504  503  0.00000000000E+00  0.00000000000E+00  0.14627660095E+04  0.14627660095E+04  0.00000000000E+00 0. -1.
       21   -1    0    0  501  504  0.00000000000E+00  0.00000000000E+00 -0.11730362079E+04  0.11730362079E+04  0.00000000000E+00 0. -1.
        6    1    1    2  501    0  0.87889677215E+02 -0.92152894871E+02 -0.51266767939E+03  0.55585420830E+03  0.17300000000E+03 0. -1.
       -6    1    1    2    0  502 -0.55948761156E+03  0.34640659008E+03 -0.13522635422E+03  0.69371397565E+03  0.17300000000E+03 0. -1.
        6    1    1    2  502    0  0.16681195683E+03  0.12766631977E+03 -0.44472811746E+02  0.27573855213E+03  0.17300000000E+03 0.  1.
       -6    1    1    2    0  503  0.30478597751E+03 -0.38192001497E+03  0.98209664704E+03  0.11104954813E+04  0.17300000000E+03 0. -1.
</event>
<event>
 6   0  0.4500850E-05  0.3850340E+03  0.7546771E-02  0.1052567E+00
       21   -1    0    0  504  503  0.00000000000E+00  0.00000000000E+00  0.63975155207E+03  0.63975155207E+03  0.00000000000E+00 0. -1.
       21   -1    0    0  502  504  0.00000000000E+00  0.00000000000E+00 -0.17229854798E+04  0.17229854798E+04  0.00000000000E+00 0.  1.
        6    1    1    2  501    0  0.17330266354E+03 -0.24827200752E+03  0.34367481868E+03  0.48960615182E+03  0.17300000000E+03 0. -1.
       -6    1    1    2    0  503 -0.19480356987E+03  0.25968356438E+03 -0.30146842243E+03  0.47560087696E+03  0.17300000000E+03 0.  1.
        6    1    1    2  502    0  0.22706916655E+03  0.26279434242E+03 -0.31141819596E+03  0.49752544214E+03  0.17300000000E+03 0.  1.
       -6    1    1    2    0  501 -0.20556826022E+03 -0.27420589928E+03 -0.81402212800E+03  0.90000456092E+03  0.17300000000E+03 0.  1.
</event>
<event>
 6   0  0.4500850E-05  0.3690559E+03  0.7546771E-02  0.1064236E+00
       21   -1    0    0  501  503  0.00000000000E+00  0.00000000000E+00  0.65496574159E+03  0.65496574159E+03  0.00000000000E+00 0. -1.
       21   -1    0    0  502  504  0.00000000000E+00  0.00000000000E+00 -0.10211833116E+04  0.10211833116E+04  0.00000000000E+00 0. -1.
        6    1    1    2  501    0 -0.16651414333E+03  0.11953422437E+03 -0.15378584955E+03  0.30918356724E+03  0.17300000000E+03 0. -1.
       -6    1    1    2    0  504 -0.31527107472E+03 -0.12390443988E+03 -0.44634758622E+03  0.58643271438E+03  0.17300000000E+03 0. -1.
        6    1    1    2  502    0  0.20738176845E+03  0.22100121210E+03  0.15833474569E+03  0.38320702672E+03  0.17300000000E+03 0. -1.
       -6    1    1    2    0  503  0.27440344960E+03 -0.21663099659E+03  0.75581120057E+02  0.39732574488E+03  0.17300000000E+03 0.  1.
</event>
<event>
 6   0  0.4500850E-05  0.1225225E+04  0.7546771E-02  0.9385300E-01
       -1   -1    0    0    0  501  0.00000000000E+00  0.00000000000E+00  0.36997598027E+03  0.36997598027E+03  0.00000000000E+00 0. -1.
        1   -1    0    0  502    0  0.00000000000E+00  0.00000000000E+00 -0.24186079849E+04  0.24186079849E+04  0.00000000000E+00 0.  1.
        6    1    1    2  502    0 -0.17255332056E+03  0.60458249081E+03 -0.84474321152E+03  0.10671526273E+04  0.17300000000E+03 0. -1.
       -6    1    1    2    0  501  0.55505609985E+02 -0.51140955730E+03 -0.11915694923E+04  0.13093461968E+04  0.17300000000E+03 0.  1.
        6    1    1    2  503    0  0.81700402791E+02 -0.55168139878E+02  0.73327757001E+02  0.21218963080E+03  0.17300000000E+03 0.  1.
       -6    1    1    2    0  503  0.35347307783E+02 -0.38004793634E+02 -0.85647057829E+02  0.19989551026E+03  0.17300000000E+03 0. -1.
</event>
<event>
 6   0  0.4500850E-05  0.2106875E+03  0.7546771E-02  0.1146775E+00
       21   -1    0    0  502  503  0.00000000000E+00  0.00000000000E+00  0.41958560119E+03  0.41958560119E+03  0.00000000000E+00 0.  1.
       21   -1    0    0  501  504  0.00000000000E+00  0.00000000000E+00 -0.43195527819E+03  0.43195527819E+03  0.00000000000E+00 0. -1.
        6    1    1    2  501    0 -0.74674284167E+02  0.86124446842E+02  0.25003709969E+02  0.20868122717E+03  0.17300000000E+03 0.  1.
       -6    1    1    2    0  504  0.36467978331E+02  0.49385207249E+02 -0.11818920009E+03  0.21832658829E+03  0.17300000000E+03 0. -1.
        6    1    1    2  502    0  0.64299615697E+02  0.12340096432E+02  0.12028736911E+02  0.18536560919E+03  0.17300000000E+03 0. -1.
       -6    1    1    2    0  503 -0.26093309861E+02 -0.14784975052E+03  0.68787076202E+02  0.23916745473E+03  0.17300000000E+03 0.  1.
</event>
<event>
 6   0  0.4500850E-05  0.2074528E+03  0.7546771E-02  0.1146846E+00
       21   -1    0    0  501  503  0.00000000000E+00  0.00000000000E+00  0.18658591344E+04  0.18658591344E+04  0.00000000000E+00 0.  1.
       21   -1    0    0  502  504  0.00000000000E+00  0.00000000000E+00 -0.17072620008E+03  0.17072620008E+03  0.00000000000E+00 0. -1.
        6    1    1    2  501    0 -0.17997583718E+02 -0.65984826765E+01  0.60531613150E+02  0.18428382779E+03  0.17300000000E+03 0. -1.
       -6    1    1    2    0  503  0.26853673152E+02 -0.68812272461E+02  0.11877008142E+04  0.12025050822E+04  0.17300000000E+03 0. -1.
        6    1    1    2  502    0  0.11262079075E+03 -0.63266441032E+02  0.16965276418E+03  0.27458540650E+03  0.17300000000E+03 0. -1.
       -6    1    1    2    0  504 -0.12147688019E+03  0.13867719617E+03  0.27724774283E+03  0.37521101804E+03  0.17300000000E+03 0. -1.
</event>
<event>
 6   0  0.4500850E-05  0.2774702E+03  0.7546771E-02  0.1102065E+00
       21   -1    0    0  504  503  0.00000000000E+00  0.00000000000E+00  0.71830729244E+03  0.71830729244E+03  0.00000000000E+00 0. -1.
       21   -1    0    0  501  504  0.00000000000E+00  0.00000000000E+00 -0.49323312561E+03  0.49323312561E+03  0.00000000000E+00 0. -1.
        6    1    1    2  501    0 -0.38130943431E+01 -0.64087216824E+02  0.66868192979E+02  0.19627039074E+03  0.17300000000E+03 0. -1.
       -6    1    1    2    0  503 -0.42687701612E+02  0.32394562750E+03  0.14584291089E+03  0.39744454217E+03  0.17300000000E+03 0. -1.
        6    1    1    2  502    0  0.15952979067E+03 -0.30412237876E+03  0.85979687346E+02  0.39403259004E+03  0.17300000000E+03 0. -1.
       -6    1    1    2    0  502 -0.11302899471E+03  0.44263968091E+02 -0.73616624387E+02  0.22379289511E+03  0.17300000000E+03 0. -1.
</event>
<event>
 6   0  0.4500850E-05  0.4915015E+03  0.7546771E-02  0.1040432E+00
       21   -1    0    0  502  503  0.00000000000E+00  0.00000000000E+00  0.62467530729E+03  0.62467530729E+03  0.00000000000E+00 0. -1.
       21   -1    0    0  501  504  0.00000000000E+00  0.00000000000E+00 -0.94607058714E+03  0.94607058714E+03  0.00000000000E+00 0.  1.
        6    1    1    2  501    0  0.39443403691E+02  0.11805646822E+03 -0.64111572671E+02  0.22255876872E+03  0.17300000000E+03 0. -1.
       -6    1    1    2    0  503 -0.37910715249E+03  0.14132213035E+03  0.31761127755E+03  0.54267863531E+03  0.17300000000E+03 0. -1.
        6    1    1    2  502    0  0.19687111697E+03 -0.71679778011E+02 -0.27352273211E+03  0.38553847053E+03  0.17300000000E+03 0.  1.
       -6    1    1    2    0  504  0.14279263182E+03 -0.18769882056E+03 -0.30137225261E+03  0.41997001987E+03  0.17300000000E+03 0.  1.
</event>
<event>
 6   0  0.4500850E-05  0.1093852E+04  0.7546771E-02  0.9255306E-01
       -1   -1    0    0    0  501  0.00000000000E+00  0.00000000000E+00  0.11432299386E+04  0.11432299386E+04  0.00000000000E+00 0. -1.
        1   -1    0    0  503    0  0.00000000000E+00  0.00000000000E+00 -0.89759997517E+03  0.89759997517E+03  0.00000000000E+00 0.  1.
        6    1    1    2  502    0  0.27445094599E+03  0.34530977482E+03  0.27811862181E+03  0.54940070089E+03  0.17300000000E+03 0. -1.
       -6    1    1    2    0  502 -0.56720022322E+03 -0.34212031840E+03 -0.52202819968E+02  0.68659780068E+03  0.17300000000E+03 0.  1.
        6    1    1    2  503    0  0.18683680068E+03 -0.23597971869E+03  0.24302399660E+03  0.42377361957E+03  0.17300000000E+03 0. -1.
       -6    1    1    2    0  501  0.10591247655E+03  0.23279026227E+03 -0.22330983502E+03  0.38105779262E+03  0.17300000000E+03 0. -1.
</event>
<event>
 6   0  0.4500850E-05  0.2700259E+03  0.7546771E-02  0.1104152E+00
       21   -1    0    0  504  503  0.00000000000E+00  0.00000000000E+00  0.86005257834E+03  0.86005257834E+03  0.00000000000E+00 0. -1.
       21   -1    0    0  501  504  0.00000000000E+00  0.00000000000E+00 -0.12448981968E+04  0.12448981968E+04  0.00000000000E+00 0.  1.
        6    1    1    2  501    0  0.35535029057E+02 -0.55756041510E+02 -0.35483747926E+03  0.40026255276E+03  0.17300000000E+03 0.  1.
       -6    1    1    2    0  503  0.98215354057E+02 -0.15278437108E+01  0.32301578958E+03  0.37936366510E+03  0.17300000000E+03 0. -1.
        6    1    1    2  502    0  0.46340182164E+02  0.29916599041E+03  0.37896603839E+03  0.51496792187E+03  0.17300000000E+03 0. -1.
       -6    1    1    2    0  502 -0.18009056528E+03 -0.24188210519E+03 -0.73198996720E+03  0.81035663543E+03  0.17300000000E+03 0.  1.
</event>
<event>
 6   0  0.4500850E-05  0.3124660E+03  0.7546771E-02  0.1079294E+00
       21   -1    0    0  502  503  0.00000000000E+00  0.00000000000E+00  0.20033787946E+04  0.20033787946E+04  0.00000000000E+00 0. -1.
       21   -1    0    0  501  504  0.00000000000E+00  0.00000000000E+00 -0.13264150078E+04  0.13264150078E+04  0.00000000000E+00 0. -1.
        6    1    1    2  501    0 -0.24107820604E+02  0.79869168013E+01 -0.78769130186E+03  0.80686527059E+03  0.17300000000E+03 0. -1.
       -6    1    1    2    0  503  0.54166732192E+03 -0.11650356812E+03 -0.27719521507E+03  0.64322838579E+03  0.17300000000E+03 0. -1.
        6    1    1    2  502    0 -0.28095757551E+02 -0.42508515978E+01  0.43240744393E+03  0.46659686979E+03  0.17300000000E+03 0.  1.
       -6    1    1    2    0  504 -0.48946374377E+03  0.11276750292E+03  0.13094428598E+04  0.14131032762E+04  0.17300000000E+03 0. -1.
</event>
<event>
 6   0  0.4500850E-05  0.4048910E+03  0.7546771E-02  0.1056153E+00
       21   -1    0    0  502  503  0.00000000000E+00  0.00000000000E+00  0.25382204479E+04  0.25382204479E+04  0.00000000000E+00 0.  1.
       21   -1    0    0  501  504  0.00000000000E+00  0.00000000000E+00 -0.13384600805E+03  0.13384600805E+03  0.00000000000E+00 0.  1.
        6    1    1    2  501    0 -0.77782647952E+01  0.28116489275E+03  0.80218748414E+03  0.86749522075E+03  0.17300000000E+03 0. -1.
       -6    1    1    2    0  504  0.20333613676E+02 -0.15243444287E+03  0.21737386896E+03  0.31753757907E+03  0.17300000000E+03 0. -1.
        6    1    1    2  502    0  0.55908286344E+01 -0.25633548700E+03  0.98910769483E+03  0.10363407602E+04  0.17300000000E+03 0.  1.
       -6    1    1    2    0  503 -0.18146177515E+02  0.12760503712E+03  0.39570539195E+03  0.45069289597E+03  0.17300000000E+03 0.  1.
</event>
<event>
 6   0  0.4500850E-05  0.2389355E+03  0.7546771E-02  0.1131638E+00
       21   -1    0    0  502  503  0.00000000000E+00  0.00000000000E+00  0.15314318701E+04  0.15314318701E+04  0.00000000000E+00 0. -1.
       21   -1    0    0  501  504  0.00000000000E+00  0.00000000000E+00 -0.34782712859E+03  0.34782712859E+03  0.00000000000E+00 0.  1.
        6    1    1    2  501    0  0.66825498113E+02  0.13700032839E+03  0.66504791635E+02  0.23997213273E+03  0.17300000000E+03 0. -1.
       -6    1    1    2    0  503  0.97025832683E+02 -0.17217694287E+03 -0.14422578862E+03  0.29964811023E+03  0.17300000000E+03 0.  1.
        6    1    1    2  502    0  0.34852204799E+02  0.28111272227E+02  0.64564241454E+03  0.66991644797E+03  0.17300000000E+03 0. -1.
       -6    1    1    2    0  504 -0.19870353560E+03  0.70653422558E+01  0.61568332397E+03  0.66972230778E+03  0.17300000000E+03 0. -1.
</event>
<event>
 6   0  0.4500850E-05  0.6382333E+03  0.7546771E-02  0.1022570E+00
       21   -1    0    0  501  503  0.00000000000E+00  0.00000000000E+00  0.93022121160E+03  0.93022121160E+03  0.00000000000E+00 0.  1.
       21   -1    0    0  503  504  0.00000000000E+00  0.00000000000E+00 -0.82181780176E+03  0.82181780176E+03  0.00000000000E+00 0.  1.
        6    1    1    2  501    0 -0.24996562586E+03  0.12150051480E+03  0.25530007402E+03  0.41515336564E+03  0.17300000000E+03 0.  1.
       -6    1    1    2    0  502 -0.26689543770E+03 -0.92443084027E+02  0.20457242275E+03  0.38930421857E+03  0.17300000000E+03 0.  1.
        6    1    1    2  502    0  0.45425983127E+03 -0.23618675445E+02  0.66211725067E+02  0.49114440715E+03  0.17300000000E+03 0. -1.
       -6    1    1    2    0  504  0.62601232282E+02 -0.54387553288E+01 -0.41768081199E+03  0.45643702200E+03  0.17300000000E+03 0.  1.
</event>
<event>
 6   0  0.4500850E-05  0.5148011E+03  0.7546771E-02  0.1038696E+00
       21   -1    0    0  502  503  0.00000000000E+00  0.00000000000E+00  0.88059110725E+03  0.88059110725E+03  0.00000000000E+00 0.  1.
       21   -1    0    0  501  504  0.00000000000E+00  0.00000000000E+00 -0.14134421562E+04  0.14134421562E+04  0.00000000000E+00 0. -1.
        6    1    1    2  501    0 -0.36407470064E+03 -0.14474768807E+03  0.11833731418E+03  0.44433658501E+03  0.17300000000E+03 0.  1.
       -6    1    1    2    0  504  0.20065750615E+03  0.47725886160E+03 -0.89014310237E+03  0.10441854234E+04  0.17300000000E+03 0. -1.
        6    1    1    2  502    0  0.26802309340E+03 -0.41265194879E+03  0.26749543811E+03  0.58617473406E+03  0.17300000000E+03 0.  1.
       -6    1    1    2    0  503 -0.10460589891E+03  0.80140775262E+02 -0.28540698880E+02  0.21933652099E+03  0.17300000000E+03 0. -1.
</event>
<event>
 6   0  0.4500850E-05  0.3182756E+03  0.7546771E-02  0.1079474E+00
       21   -1    0    0  504  503  0.00000000000E+00  0.00000000000E+00  0.37943511039E+03  0.37943511039E+03  0.00000000000E+00 0. -1.
       21   -1    0    0  502  504  0.00000000000E+00  0.00000000000E+00 -0.14931326662E+04  0.14931326662E+04  0.00000000000E+00 0.  1.
        6    1    1    2  501    0  0.22989922328E+02  0.29058550961E+03 -0.64224606415E+03  0.72620760244E+03  0.17300000000E+03 0.  1.
       -6    1    1    2    0  503  0.99017324219E+02  0.23864839078E+03 -0.15768906437E+03  0.34864355141E+03  0.17300000000E+03 0.  1.
        6    1    1    2  502    0 -0.23853665347E+02 -0.35265629069E+03 -0.35325830395E+03  0.52882500511E+03  0.17300000000E+03 0. -1.
       -6    1    1    2    0  501 -0.98153581200E+02 -0.17657760970E+03  0.39495876676E+02  0.26889161762E+03  0.17300000000E+03 0. -1.
</event>
<event>
 6   0  0.4500850E-05  0.2144701E+03  0.7546771E-02  0.1140497E+00
       21   -1    0    0  501  503  0.00000000000E+00  0.00000000000E+00  0.11896084890E+04  0.11896084890E+04  0.00000000000E+00 0.  1.
       21   -1    0    0  502  504  0.00000000000E+00  0.00000000000E+00 -0.41182474381E+03  0.41182474381E+03  0.00000000000E+00 0.  1.
        6    1    1    2  501    0  0.82899159052E+02 -0.23245564017E+02  0.42276499557E+03  0.46483531309E+03  0.17300000000E+03 0.  1.
       -6    1    1    2    0  504 -0.23341695293E+03 -0.37781193325E+01  0.59025612753E+03  0.65789744199E+03  0.17300000000E+03 0.  1.
        6    1    1    2  502    0 -0.65742857081E+01  0.54746297971E+02 -0.10476134274E+03  0.20962899920E+03  0.17300000000E+03 0.  1.
       -6    1    1    2    0  503  0.15709207958E+03 -0.27722614621E+02 -0.13047603513E+03  0.26907147856E+03  0.17300000000E+03 0. -1.
</event>
<event>
 6   0  0.4500850E-05  0.2532663E+03  0.7546771E-02  0.1123441E+00
       21   -1    0    0  504  503  0.00000000000E+00  0.00000000000E+00  0.23248045924E+04  0.23248045924E+04  0.00000000000E+00 0. -1.
       21   -1    0    0  501  504  0.00000000000E+00  0.00000000000E+00 -0.25110329480E+03  0.25110329480E+03  0.00000000000E+00 0. -1.
        6    1    1    2  501    0  0.65188693085E+02  0.24325823881E+02 -0.47555297504E+02  0.19243652911E+03  0.17300000000E+03 0.  1.
       -6    1    1    2    0  502  0.15772559541E+03  0.11837975305E+03  0.24543684575E+03  0.35924834673E+03  0.17300000000E+03 0. -1.
        6    1    1    2  502    0 -0.18717663499E+03 -0.11576407207E+02  0.17545637907E+04  0.17730178232E+04  0.17300000000E+03 0. -1.
       -6    1    1    2    0  503 -0.35737653507E+02 -0.13112916972E+03  0.12125595867E+03  0.25120518813E+03  0.17300000000E+03 0. -1.
</event>
<event>
 6   0  0.4500850E-05  0.1965372E+03  0.7546771E-02  0.1154450E+00
       21   -1    0    0  501  503  0.00000000000E+00  0.00000000000E+00  0.65299249110E+03  0.65299249110E+03  0.00000000000E+00 0. -1.
       21   -1    0    0  502  504  0.00000000000E+00  0.00000000000E+00 -0.27809622806E+03  0.27809622806E+03  0.00000000000E+00 0. -1.
        6    1    1    2  501    0 -0.15304904433E+03 -0.14454130186E+02  0.12743970359E+03  0.26420221404E+03  0.17300000000E+03 0. -1.
       -6    1    1    2    0  503  0.28573600615E+02 -0.35908422492E+02  0.20961924004E+03  0.27563579458E+03  0.17300000000E+03 0.  1.
        6    1    1    2  502    0  0.61917363686E+02 -0.11064299006E+02 -0.28498324163E+02  0.18627220168E+03  0.17300000000E+03 0.  1.
       -6    1    1    2    0  504  0.62558080033E+02  0.61426851684E+02  0.66335643577E+02  0.20497850886E+03  0.17300000000E+03 0.  1.
</event>
<event>
 6   0  0.4500850E-05  0.4150025E+03  0.7546771E-02  0.1044847E+00
       21   -1    0    0  504  503  0.00000000000E+00  0.00000000000E+00  0.93800479936E+03  0.93800479936E+03  0.00000000000E+00 0. -1.
       21   -1    0    0  502  504  0.00000000000E+00  0.00000000000E+00 -0.15054521406E+04  0.15054521406E+04  0.00000000000E+00 0.  1.
        6    1    1    2  501    0 -0.21645796129E+03  0.10570425452E+03  0.37667840475E+03  0.47941950214E+03  0.17300000000E+03 0. -1.
       -6    1    1    2    0  503 -0.12098238970E+03 -0.29926173368E+02  0.32994875005E+03  0.39284537942E+03  0.17300000000E+03 0. -1.
        6    1    1    2  502    0  0.26895295166E+03  0.15444116563E+03 -0.12195506056E+04  0.12702048825E+04  0.17300000000E+03 0.  1.
       -6    1    1    2    0  501  0.68487399325E+02 -0.23021924678E+03 -0.54523890455E+02  0.30098717595E+03  0.17300000000E+03 0. -1.
</event>
<event>
 6   0  0.4500850E-05  0.4221241E+03  0.7546771E-02  0.1054298E+00
       21   -1    0    0  504  503  0.00000000000E+00  0.00000000000E+00  0.20656205051E+04  0.20656205051E+04  0.00000000000E+00 0.  1.
       21   -1    0    0  502  504  0.00000000000E+00  0.00000000000E+00 -0.66982157779E+03  0.66982157779E+03  0.00000000000E+00 0.  1.
        6    1    1    2  501    0 -0.12759987432E+03 -0.33205969264E+03  0.12617636287E+04  0.13223168387E+04  0.17300000000E+03 0.  1.
       -6    1    1    2    0  503 -0.15420314645E+03 -0.23412053955E+03  0.16134487573E+03  0.36681358527E+03  0.17300000000E+03 0.  1.
        6    1    1    2  502    0 -0.18230092690E+03 -0.18004266087E+02 -0.11202532748E+03  0.27574708619E+03  0.17300000000E+03 0. -1.
       -6    1    1    2    0  501  0.46410394767E+03  0.58418449827E+03  0.84715750350E+02  0.77056457265E+03  0.17300000000E+03 0.  1.
</event>
<event>
 6   0  0.4500850E-05  0.1037293E+04  0.7546771E-02  0.9268563E-01
       -2   -1    0    0    0  501  0.00000000000E+00  0.00000000000E+00  0.76161675338E+03  0.76161675338E+03  0.00000000000E+00 0.  1.
        2   -1    0    0  502    0  0.00000000000E+00  0.00000000000E+00 -0.16391335065E+04  0.16391335065E+04  0.00000000000E+00 0. -1.
        6    1    1    2  502    0  0.37280944616E+03  0.71301950082E+03 -0.70181280838E+03  0.10815978503E+04  0.17300000000E+03 0.  1.
       -6    1    1    2    0  503  0.10136134682E+03 -0.21050544541E+03 -0.24875264459E+02  0.29177807313E+03  0.17300000000E+03 0.  1.
        6    1    1    2  503    0 -0.11144883310E+03  0.14610592585E+03 -0.19527030091E+02  0.25313650245E+03  0.17300000000E+03 0. -1.
       -6    1    1    2    0  501 -0.36272195988E+03 -0.64861998127E+03 -0.13130165016E+03  0.77423783401E+03  0.17300000000E+03 0. -1.
</event>
<event>
 6   0  0.4500850E-05  0.5359853E+03  0.7546771E-02  0.1042326E+00
       21   -1    0    0  504  503  0.00000000000E+00  0.00000000000E+00  0.51548637317E+03  0.51548637317E+03  0.00000000000E+00 0.  1.
       21   -1    0    0  501  504  0.00000000000E+00  0.00000000000E+00 -0.61286190331E+03  0.61286190331E+03  0.00000000000E+00 0. -1.
        6    1    1    2  501    0  0.11673465905E+02  0.79208926152E+00  0.23780512582E+02  0.17501831330E+03  0.17300000000E+03 0.  1.
       -6    1    1    2    0  503  0.25961399683E+03  0.25864025884E+03 -0.30645164551E+02  0.40640169408E+03  0.17300000000E+03 0. -1.
        6    1    1    2  502    0 -0.18806815962E+03 -0.86322207529E+02  0.91649025233E+01  0.26987803099E+03  0.17300000000E+03 0.  1.
       -6    1    1    2    0  502 -0.83219303121E+02 -0.17311014057E+03 -0.99675780690E+02  0.27705023811E+03  0.17300000000E+03 0.  1.
</event>
<event>
 6   0  0.4500850E-05  0.6035948E+03  0.7546771E-02  0.9909294E-01
       21   -1    0    0  504  503  0.00000000000E+00  0.00000000000E+00  0.36308354123E+03  0.36308354123E+03  0.00000000000E+00 0. -1.
       21   -1    0    0  502  504  0.00000000000E+00  0.00000000000E+00 -0.12177151475E+04  0.12177151475E+04  0.00000000000E+00 0.  1.
        6    1    1    2  501    0  0.29294761752E+03  0.49096557033E+00 -0.46217954581E+02  0.34334188061E+03  0.17300000000E+03 0. -1.
       -6    1    1    2    0  501  0.14506375450E+03 -0.85764292209E+02 -0.16962548590E+02  0.24210686637E+03  0.17300000000E+03 0. -1.
        6    1    1    2  502    0 -0.21205219882E+03  0.10914148539E+03 -0.53859623950E+03  0.61391604317E+03  0.17300000000E+03 0.  1.
       -6    1    1    2    0  503 -0.22595917320E+03 -0.23868158753E+02 -0.25285486361E+03  0.38143389860E+03  0.17300000000E+03 0.  1.
</event>
<event>
 6   0  0.4500850E-05  0.3219291E+03  0.7546771E-02  0.1090230E+00
       21   -1    0    0  502  503  0.00000000000E+00  0.00000000000E+00  0.89098342061E+03  0.89098342061E+03  0.00000000000E+00 0. -1.
       21   -1    0    0  501  504  0.00000000000E+00  0.00000000000E+00 -0.96980447192E+03  0.96980447192E+03  0.00000000000E+00 0. -1.
        6    1    1    2  501    0  0.24037258698E+03  0.24157362492E+03  0.29105994135E+03  0.48039742535E+03  0.17300000000E+03 0. -1.
       -6    1    1    2    0  503 -0.17564112597E+02 -0.25628717168E+03  0.33455531486E+03  0.45590335721E+03  0.17300000000E+03 0.  1.
        6    1    1    2  502    0 -0.17545130391E+03  0.12895012501E+03 -0.12059321586E+03  0.30312211812E+03  0.17300000000E+03 0.  1.
       -6    1    1    2    0  504 -0.47357170480E+02 -0.11423657826E+03 -0.58384309166E+03  0.62136499184E+03  0.17300000000E+03 0. -1.
</event>
<event>
 6   0  0.4500850E-05  0.2910740E+03  0.7546771E-02  0.1095445E+00
       21   -1    0    0  501  503  0.00000000000E+00  0.00000000000E+00  0.12437664566E+04  0.12437664566E+04  0.00000000000E+00 0. -1.
       21   -1    0    0  502  504  0.00000000000E+00  0.00000000000E+00 -0.41058511028E+03  0.41058511028E+03  0.00000000000E+00 0.  1.
        6    1    1    2  501    0 -0.24074534035E+03 -0.95997956737E+01 -0.15170376873E+03  0.33315688260E+03  0.17300000000E+03 0. -1.
       -6    1    1    2    0  503 -0.18607744857E+02 -0.18755179974E+03  0.37496615827E+03  0.45392790793E+03  0.17300000000E+03 0.  1.
        6    1    1    2  502    0  0.14883621717E+03 -0.89133479262E+02  0.35950846343E+03  0.43505440113E+03  0.17300000000E+03 0.  1.
       -6    1    1    2    0  504  0.11051686803E+03  0.28628507468E+03  0.25041049333E+03  0.43221237520E+03  0.17300000000E+03 0. -1.
</event>
<event>
 6   0  0.4500850E-05  0.9093870E+03  0.7546771E-02  0.9431118E-01
       21   -1    0    0  502  503  0.00000000000E+00  0.00000000000E+00  0.15350555956E+04  0.15350555956E+04  0.00000000000E+00 0. -1.
       21   -1    0    0  501  504  0.00000000000E+00  0.00000000000E+00 -0.50998842400E+03  0.50998842400E+03  0.00000000000E+00 0.  1.
        6    1    1    2  501    0 -0.52510215766E+02 -0.33882325523E+03  0.38969976154E+03  0.54713199978E+03  0.17300000000E+03 0. -1.
       -6    1    1    2    0  503 -0.18343038337E+02 -0.43075475055E+03  0.63346967395E+02  0.46885814535E+03  0.17300000000E+03 0.  1.
        6    1    1    2  502    0  0.92867854701E+02  0.35873750559E+03  0.28285655515E+03  0.49724628419E+03  0.17300000000E+03 0. -1.
       -6    1    1    2    0  504 -0.22014600599E+02  0.41084050020E+03  0.28916388752E+03  0.53180759029E+03  0.17300000000E+03 0. -1.
</event>
<event>
 6   0  0.4500850E-05  0.2991443E+03  0.7546771E-02  0.1100999E+00
       21   -1    0    0  504  503  0.00000000000E+00  0.00000000000E+00  0.53401926972E+03  0.53401926972E+03  0.00000000000E+00 0.  1.
       21   -1    0    0  501  504  0.00000000000E+00  0.00000000000E+00 -0.25302664756E+04  0.25302664756E+04  0.00000000000E+00 0.  1.
        6    1    1    2  501    0  0.39127437713E+02 -0.92355408581E+02  0.15732910261E+03  0.25444434441E+03  0.17300000000E+03 0.  1.
       -6    1    1    2    0  502  0.10595266755E+03 -0.21335094404E+03 -0.21538899615E+04  0.21739171004E+04  0.17300000000E+03 0.  1.
        6    1    1    2  502    0 -0.53507928942E+02  0.38435435188E+03  0.54440462302E+01  0.42491176014E+03  0.17300000000E+03 0.  1.
       -6    1    1    2    0  503 -0.91572176322E+02 -0.78647999253E+02 -0.51303932242E+01  0.21101254038E+03  0.17300000000E+03 0.  1.
</event>
<event>
 6   0  0.4500850E-05  0.2247526E+03  0.7546771E-02  0.1135171E+00
       21   -1    0    0  504  503  0.00000000000E+00  0.00000000000E+00  0.24851642237E+03  0.24851642237E+03  0.00000000000E+00 0. -1.
       21   -1    0    0  502  504  0.00000000000E+00  0.00000000000E+00 -0.12206981077E+04  0.12206981077E+04  0.00000000000E+00 0.  1.
        6    1    1    2  501    0 -0.61854950485E+02 -0.75878191068E+02 -0.45025094206E+01  0.19882858791E+03  0.17300000000E+03 0.  1.
       -6    1    1    2    0  503  0.64247540411E+02 -0.14669944713E+03 -0.28984860262E+03  0.37361703210E+03  0.17300000000E+03 0. -1.
        6    1    1    2  502    0 -0.33659784845E+02  0.23093500156E+03 -0.12438767047E+03  0.31601463356E+03  0.17300000000E+03 0.  1.
       -6    1    1    2    0  501  0.31267194920E+02 -0.83573633622E+01 -0.55344290279E+03  0.58075427648E+03  0.17300000000E+03 0.  1.
</event>
<event>
 6   0  0.4500850E-05  0.1955721E+03  0.7546771E-02  0.1154023E+00
       21   -1    0    0  502  503  0.00000000000E+00  0.00000000000E+00  0.64466129961E+03  0.64466129961E+03  0.00000000000E+00 0.  1.
       21   -1    0    0  501  504  0.00000000000E+00  0.00000000000E+00 -0.77746469102E+03  0.77746469102E+03  0.00000000000E+00 0. -1.
        6    1    1    2  501    0 -0.17033694342E+02  0.13075098114E+03  0.21864018289E+03  0.30841286514E+03  0.17300000000E+03 0.  1.
       -6    1    1    2    0  503 -0.21463532422E+01 -0.11825901438E+03  0.12286909783E+03  0.24293129999E+03  0.17300000000E+03 0. -1.
        6    1    1    2  502    0 -0.31182640033E+02 -0.33580224802E+02  0.14191563726E+03  0.22840542164E+03  0.17300000000E+03 0.  1.
       -6    1    1    2    0  504  0.50362687617E+02  0.21088258040E+02 -0.61622830939E+03  0.64237640385E+03  0.17300000000E+03 0. -1.
</event>
<event>
 6   0  0.4500850E-05  0.3761199E+03  0.7546771E-02  0.1066513E+00
       21   -1    0    0  504  503  0.00000000000E+00  0.00000000000E+00  0.68424910798E+03  0.68424910798E+03  0.00000000000E+00 0.  1.
       21   -1    0    0  501  504  0.00000000000E+00  0.00000000000E+00 -0.46273506251E+03  0.46273506251E+03  0.00000000000E+00 0.  1.
        6    1    1    2  501    0  0.97181473839E+02  0.57500486752E+02  0.73441887613E+01  0.20672078256E+03  0.17300000000E+03 0. -1.
       -6    1    1    2    0  502 -0.78836255614E+02  0.79186002220E+02 -0.92015153340E+01  0.20615345263E+03  0.17300000000E+03 0.  1.
        6    1    1    2  502    0 -0.22831050591E+03 -0.12182218865E+02 -0.90333765939E+02  0.30060486162E+03  0.17300000000E+03 0.  1.
       -6    1    1    2    0  503  0.20996528768E+03 -0.12450427011E+03  0.31370513797E+03  0.43350507367E+03  0.17300000000E+03 0.  1.
</event>
<event>
 6   0  0.4500850E-05  0.2193346E+03  0.7546771E-02  0.1136167E+00
       21   -1    0    0  502  503  0.00000000000E+00  0.00000000000E+00  0.82851184975E+03  0.82851184975E+03  0.00000000000E+00 0.  1.
       21   -1    0    0  503  504  0.00000000000E+00  0.00000000000E+00 -0.36356827875E+03  0.36356827875E+03  0.00000000000E+00 0.  1.
        6    1    1    2  501    0  0.60657757059E+02 -0.10243714460E+03  0.30558903657E+02  0.21221587753E+03  0.17300000000E+03 0. -1.
       -6    1    1    2    0  501  0.52964391221E+02 -0.12199685247E+03  0.30664615148E+03  0.37636328323E+03  0.17300000000E+03 0.  1.
        6    1    1    2  502    0 -0.14759681389E+03  0.64559555202E+02  0.24304071685E+03  0.33904357491E+03  0.17300000000E+03 0. -1.
       -6    1    1    2    0  504  0.33974665614E+02  0.15987444187E+03 -0.11530220099E+03  0.26445739282E+03  0.17300000000E+03 0.  1.
</event>
<event>
 6   0  0.4500850E-05  0.3439286E+03  0.7546771E-02  0.1068290E+00
       21   -1    0    0  501  503  0.00000000000E+00  0.00000000000E+00  0.18409894139E+04  0.18409894139E+04  0.00000000000E+00 0. -1.
       21   -1    0    0  502  504  0.00000000000E+00  0.00000000000E+00 -0.35846372728E+03  0.35846372728E+03  0.00000000000E+00 0.  1.
        6    1    1    2  501    0  0.13862624749E+03 -0.55766733407E+03  0.49394111218E+03  0.77724958301E+03  0.17300000000E+03 0.  1.
       -6    1    1    2    0  504 -0.25570241945E+03  0.28607598951E+03  0.24372587951E+03  0.48636869084E+03  0.17300000000E+03 0.  1.
        6    1    1    2  502    0  0.76025092632E+02  0.13956850091E+03  0.65673273059E+03  0.69748552715E+03  0.17300000000E+03 0. -1.
       -6    1    1    2    0  503  0.41051079325E+02  0.13202284366E+03  0.88125964302E+02  0.23834934014E+03  0.17300000000E+03 0.  1.
</event>
<event>
 6   0  0.4500850E-05  0.3431951E+03  0.7546771E-02  0.1074441E+00
       21   -1    0    0  502  503  0.00000000000E+00  0.00000000000E+00  0.96351200514E+03  0.96351200514E+03  0.00000000000E+00 0. -1.
       21   -1    0    0  501  504  0.00000000000E+00  0.00000000000E+00 -0.61465869739E+03  0.61465869739E+03  0.00000000000E+00 0.  1.
        6    1    1    2  501    0 -0.94493068065E+00  0.79840075085E+02  0.17659736863E+03  0.25979022516E+03  0.17300000000E+03 0. -1.
       -6    1    1    2    0  504  0.43966878806E+03 -0.88349284645E+02 -0.77821059394E+02  0.48692849227E+03  0.17300000000E+03 0.  1.
        6    1    1    2  502    0 -0.36612281842E+02 -0.17835986303E+03 -0.66505209296E+02  0.25981655602E+03  0.17300000000E+03 0.  1.
       -6    1    1    2    0  503 -0.40211157554E+03  0.18686907259E+03  0.31658220781E+03  0.57163542907E+03  0.17300000000E+03 0. -1.
</event>
<event>
 6   0  0.4500850E-05  0.2893562E+03  0.7546771E-02  0.1095472E+00
       21   -1    0    0  502  503  0.00000000000E+00  0.00000000000E+00  0.10777066820E+04  0.10777066820E+04  0.00000000000E+00 0.  1.
       21   -1    0    0  501  504  0.00000000000E+00  0.00000000000E+00 -0.40564716461E+03  0.40564716461E+03  0.00000000000E+00 0.  1.
        6    1    1    2  501    0 -0.23558244344E+03 -0.22155291471E+03  0.39516068776E+03  0.53913426048E+03  0.17300000000E+03 0.  1.
       -6    1    1    2    0  504  0.13266676905E+03 -0.83841083571E+01  0.46123915851E+02  0.22299592036E+03  0.17300000000E+03 0. -1.
        6    1    1    2  502    0  0.12007957987E+03  0.31064321918E+03 -0.52755457187E+02  0.37898608601E+03  0.17300000000E+03 0.  1.
       -6    1    1    2    0  503 -0.17163905488E+02 -0.80706196109E+02  0.28353037093E+03  0.34223757974E+03  0.17300000000E+03 0.  1.
</event>
<event>
 6   0  0.4500850E-05  0.2536707E+03  0.7546771E-02  0.1112165E+00
       21   -1    0    0  502  503  0.00000000000E+00  0.00000000000E+00  0.13693094400E+04  0.13693094400E+04  0.00000000000E+00 0. -1.
       21   -1    0    0  501  504  0.00000000000E+00  0.00000000000E+00 -0.23055379822E+03  0.23055379822E+03  0.00000000000E+00 0. -1.
        6    1    1    2  501    0  0.29826476302E+02 -0.23001482617E+03  0.20942948643E+03  0.35719203341E+03  0.17300000000E+03 0. -1.
       -6    1    1    2    0  503 -0.72388004428E+02 -0.10858361532E+03  0.27831301660E+03  0.35272873417E+03  0.17300000000E+03 0.  1.
        6    1    1    2  502    0 -0.46910847953E+02  0.30740493807E+03  0.22643473214E+03  0.42178206639E+03  0.17300000000E+03 0. -1.
       -6    1    1    2    0  504  0.89472376079E+02  0.31193503427E+02  0.42457840659E+03  0.46816040422E+03  0.17300000000E+03 0. -1.
</event>
<event>
 6   0  0.4500850E-05  0.2080546E+03  0.7546771E-02  0.1149325E+00
       21   -1    0    0  502  503  0.00000000000E+00  0.00000000000E+00  0.12544114885E+04  0.12544114885E+04  0.00000000000E+00 0.  1.
       21   -1    0    0  503  504  0.00000000000E+00  0.00000000000E+00 -0.76994050898E+03  0.76994050898E+03  0.00000000000E+00 0. -1.
        6    1    1    2  501    0  0.10428330434E+03  0.45533192670E+02 -0.61131337954E+03  0.64543111732E+03  0.17300000000E+03 0. -1.
       -6    1    1    2    0  504 -0.83533914908E+02 -0.11991219773E+03  0.65678297645E+01  0.22655901326E+03  0.17300000000E+03 0. -1.
        6    1    1    2  502    0  0.24180622547E+02  0.89919765728E+02  0.59389621399E+03  0.62554934239E+03  0.17300000000E+03 0.  1.
       -6    1    1    2    0  501 -0.44930011982E+02 -0.15540760671E+02  0.49532031529E+03  0.52681252449E+03  0.17300000000E+03 0.  1.
</event>
<event>
 6   0  0.4500850E-05  0.2330947E+03  0.7546771E-02  0.1130254E+00
       21   -1    0    0  504  503  0.00000000000E+00  0.00000000000E+00  0.12319737359E+04  0.12319737359E+04  0.00000000000E+00 0. -1.
       21   -1    0    0  501  504  0.00000000000E+00  0.00000000000E+00 -0.32851481381E+03  0.32851481381E+03  0.00000000000E+00 0.  1.
        6    1    1    2  501    0 -0.14440152175E+03  0.85530919456E+02 -0.95074025088E+02  0.25910501329E+03  0.17300000000E+03 0.  1.
       -6    1    1    2    0  502  0.70367698438E+02 -0.13618532523E+03  0.19928352458E+02  0.23200042031E+03  0.17300000000E+03 0.  1.
        6    1    1    2  502    0 -0.59429676494E+02  0.86029165842E+02  0.36746910450E+03  0.41939891104E+03  0.17300000000E+03 0. -1.
       -6    1    1    2    0  503  0.13346349981E+03 -0.35374760064E+02  0.61113549024E+03  0.64998420509E+03  0.17300000000E+03 0. -1.
</event>
<event>
 6   0  0.4500850E-05  0.2294195E+03  0.7546771E-02  0.1128563E+00
       21   -1    0    0  504  503  0.00000000000E+00  0.00000000000E+00  0.22010897778E+03  0.22010897778E+03  0.00000000000E+00 0. -1.
       21   -1    0    0  502  504  0.00000000000E+00  0.00000000000E+00 -0.12682331668E+04  0.12682331668E+04  0.00000000000E+00 0. -1.
        6    1    1    2  501    0  0.31138925363E+01  0.13865430833E+03 -0.34871735452E+02  0.22445434163E+03  0.17300000000E+03 0. -1.
       -6    1    1    2    0  501 -0.15156617870E+03  0.98970556794E+02 -0.21288428629E+03  0.32865817651E+03  0.17300000000E+03 0. -1.
        6    1    1    2  502    0  0.27813871252E+02 -0.12637204031E+03 -0.54288592422E+03  0.58429241884E+03  0.17300000000E+03 0. -1.
       -6    1    1    2    0  503  0.12063841492E+03 -0.11125282481E+03 -0.25748224310E+03  0.35093720763E+03  0.17300000000E+03 0. -1.
</event>
<event>
 6   0  0.4500850E-05  0.6655498E+03  0.7546771E-02  0.9962271E-01
       21   -1    0    0  501  503  0.00000000000E+00  0.00000000000E+00  0.30245769880E+04  0.30245769880E+04  0.00000000000E+00 0.  1.
       21   -1    0    0  502  504  0.00000000000E+00  0.00000000000E+00 -0.69717963307E+03  0.69717963307E+03  0.00000000000E+00 0. -1.
        6    1    1    2  501    0  0.13607570107E+03  0.21757794631E+03 -0.15858601522E+03  0.34775750655E+03  0.17300000000E+03 0.  1.
       -6    1    1    2    0  504  0.98491760655E+02  0.28239466109E+03 -0.24658775698E+03  0.42447837804E+03  0.17300000000E+03 0. -1.
        6    1    1    2  502    0 -0.55426672445E+03 -0.45260862586E+03  0.16566908019E+04  0.18129036331E+04  0.17300000000E+03 0.  1.
       -6    1    1    2    0  503  0.31969926273E+03 -0.47363981533E+02  0.10758803253E+04  0.11366171033E+04  0.17300000000E+03 0. -1.
</event>
<event>
 6   0  0.4500850E-05  0.3537068E+03  0.7546771E-02  0.1086980E+00
       21   -1    0    0  502  503  0.00000000000E+00  0.00000000000E+00  0.28001226474E+04  0.28001226474E+04  0.00000000000E+00 0. -1.
       21   -1    0    0  501  504  0.00000000000E+00  0.00000000000E+00 -0.42491128269E+03  0.42491128269E+03  0.00000000000E+00 0.  1.
        6    1    1    2  501    0 -0.57520807404E+02 -0.11228061852E+03 -0.79837626149E+02  0.22851395391E+03  0.17300000000E+03 0.  1.
       -6    1    1    2    0  503 -0.23551234560E+03  0.26032489855E+03  0.85583160711E+02  0.40061027837E+03  0.17300000000E+03 0.  1.
        6    1    1    2  502    0  0.27957832255E+03 -0.12729315207E+03  0.23936597100E+04  0.24194841169E+04  0.17300000000E+03 0. -1.
       -6    1    1    2    0  504  0.13454830463E+02 -0.20751127957E+02 -0.24193879805E+02  0.17642558090E+03  0.17300000000E+03 0.  1.
</event>
<event>
 6   0  0.4500850E-05  0.6235501E+03  0.7546771E-02  0.1022873E+00
       21   -1    0    0  501  503  0.00000000000E+00  0.00000000000E+00  0.18536143843E+04  0.18536143843E+04  0.00000000000E+00 0. -1.
       21   -1    0    0  502  504  0.00000000000E+00  0.00000000000E+00 -0.70380180100E+03  0.70380180100E+03  0.00000000000E+00 0. -1.
        6    1    1    2  501    0 -0.10988404860E+03 -0.18211982922E+03 -0.13451485169E+03  0.30539381405E+03  0.17300000000E+03 0. -1.
       -6    1    1    2    0  503  0.12874059398E+03  0.41499747924E+03  0.12920170067E+04  0.13740574930E+04  0.17300000000E+03 0. -1.
        6    1    1    2  502    0 -0.74043985338E+02  0.53263626294E+02  0.34012598567E+03  0.39234450649E+03  0.17300000000E+03 0. -1.
       -6    1    1    2    0  504  0.55187439960E+02 -0.28614127632E+03 -0.34781555740E+03  0.48562037180E+03  0.17300000000E+03 0. -1.
</event>
<event>
 6   0  0.4500850E-05  0.2070819E+03  0.7546771E-02  0.1146223E+00
       21   -1    0    0  501  503  0.00000000000E+00  0.00000000000E+00  0.67270841513E+03  0.67270841513E+03  0.00000000000E+00 0. -1.
       21   -1    0    0  502  504  0.00000000000E+00  0.00000000000E+00 -0.38642340334E+03  0.38642340334E+03  0.00000000000E+00 0. -1.
        6    1    1    2  501    0 -0.31888296454E+02  0.62026842868E+02 -0.10104898375E+03  0.21214167390E+03  0.17300000000E+03 0. -1.
       -6    1    1    2    0  504 -0.76509057151E+02  0.42772039830E+02  0.31908474400E+03  0.37339946046E+03  0.17300000000E+03 0. -1.
        6    1    1    2  502    0  0.15581960515E+03  0.26056730294E+02 -0.18943468651E+02  0.23504586265E+03  0.17300000000E+03 0. -1.
       -6    1    1    2    0  503 -0.47422251547E+02 -0.13085561299E+03  0.87192720191E+02  0.23854482146E+03  0.17300000000E+03 0. -1.
</event>
<event>
 6   0  0.4500850E-05  0.2708044E+03  0.7546771E-02  0.1103501E+00
       21   -1    0    0  504  503  0.00000000000E+00  0.00000000000E+00  0.15094981813E+04  0.15094981813E+04  0.00000000000E+00 0. -1.
       21   -1    0    0  502  504  0.00000000000E+00  0.00000000000E+00 -0.46916448086E+03  0.46916448086E+03  0.00000000000E+00 0. -1.
        6    1    1    2  501    0  0.11419204344E+03  0.16954153546E+03  0.23976905891E+03  0.35944729327E+03  0.17300000000E+03 0.  1.
       -6    1    1    2    0  503 -0.22525795280E+02 -0.21427901503E+03  0.98795174453E+03  0.10258657599E+04  0.17300000000E+03 0. -1.
        6    1    1    2  502    0  0.31524340687E+02 -0.18144738682E+03 -0.87637240550E+02  0.26744387107E+03  0.17300000000E+03 0. -1.
       -6    1    1    2    0  501 -0.12319058884E+03  0.22618486639E+03 -0.99749862469E+02  0.32590573795E+03  0.17300000000E+03 0. -1.
</event>
<event>
 6   0  0.4500850E-05  0.3236473E+03  0.7546771E-02  0.1095320E+00
       21   -1    0    0  501  503  0.00000000000E+00  0.00000000000E+00  0.16483466402E+04  0.16483466402E+04  0.00000000000E+00 0.  1.
       21   -1    0    0  502  504  0.00000000000E+00  0.00000000000E+00 -0.27539859898E+03  0.27539859898E+03  0.00000000000E+00 0. -1.
        6    1    1    2  501    0 -0.13323506737E+02 -0.21508246930E+03  0.12371796353E+03  0.30277569079E+03  0.17300000000E+03 0.  1.
       -6    1    1    2    0  503 -0.37631948723E+02 -0.65038382112E+02  0.49091051600E+03  0.52589760356E+03  0.17300000000E+03 0.  1.
        6    1    1    2  502    0  0.24955164031E+02 -0.54423413312E+02  0.68686759803E+03  0.71084510645E+03  0.17300000000E+03 0.  1.
       -6    1    1    2    0  504  0.26000291429E+02  0.33454426473E+03  0.71451963641E+02  0.38422683837E+03  0.17300000000E+03 0. -1.
</event>
<event>
 6   0  0.4500850E-05  0.6271547E+03  0.7546771E-02  0.9963464E-01
        1   -1    0    0  502    0  0.00000000000E+00  0.00000000000E+00  0.10962210528E+04  0.10962210528E+04  0.00000000000E+00 0. -1.
       -1   -1    0    0    0  501  0.00000000000E+00  0.00000000000E+00 -0.31215081416E+03  0.31215081416E+03  0.00000000000E+00 0.  1.
        6    1    1    2  502    0 -0.59187078733E+02 -0.10485180318E+03  0.53483260535E+02  0.21745452416E+03  0.17300000000E+03 0.  1.
       -6    1    1    2    0  501 -0.12269637157E+03  0.62417895858E+02 -0.89384296459E+01  0.22126745998E+03  0.17300000000E+03 0.  1.
        6    1    1    2  503    0  0.23768332316E+02  0.25510266402E+03  0.39931741350E+03  0.50500069261E+03  0.17300000000E+03 0. -1.
       -6    1    1    2    0  503  0.15811511799E+03 -0.21266875670E+03  0.34020799426E+03  0.46464919022E+03  0.17300000000E+03 0. -1.
</event>
<event>
 6   0  0.4500850E-05  0.2534149E+03  0.7546771E-02  0.1113657E+00
       21   -1    0    0  502  503  0.00000000000E+00  0.00000000000E+00  0.53014940967E+03  0.53014940967E+03  0.00000000000E+00 0.  1.
       21   -1    0    0  501  504  0.00000000000E+00  0.00000000000E+00 -0.84668271129E+03  0.84668271129E+03  0.00000000000E+00 0. -1.
        6    1    1    2  501    0 -0.16257068869E+03  0.22230532801E+02  0.16885060234E+03  0.29216938806E+03  0.17300000000E+03 0.  1.
       -6    1    1    2    0  504  0.22524465960E+03 -0.24067019050E+03 -0.46424690187E+03  0.59507267049E+03  0.17300000000E+03 0.  1.
        6    1    1    2  502    0 -0.58349156015E+02  0.97935899071E+02  0.11657660525E+03  0.23772919305E+03  0.17300000000E+03 0.  1.
       -6    1    1    2    0  503 -0.43248148906E+01  0.12050375863E+03 -0.13771360735E+03  0.25186086936E+03  0.17300000000E+03 0. -1.
</event>
<event>
 6   0  0.4500850E-05  0.2742330E+03  0.7546771E-02  0.1106506E+00
       21   -1    0    0  504  503  0.00000000000E+00  0.00000000000E+00  0.81798100644E+03  0.81798100644E+03  0.00000000000E+00 0.  1.
       21   -1    0    0  501  504  0.00000000000E+00  0.00000000000E+00 -0.88424961566E+03  0.88424961566E+03  0.00000000000E+00 0.  1.
        6    1    1    2  501    0  0.13329034259E+03  0.56838503279E+01 -0.61624693395E+03  0.65382559233E+03  0.17300000000E+03 0.  1.
       -6    1    1    2    0  503  0.50313505872E+02  0.21442861214E+01  0.14304892564E+03  0.23006095271E+03  0.17300000000E+03 0. -1.
        6    1    1    2  502    0  0.21262322246E+03  0.30124603653E+02  0.14812645421E+03  0.31302807049E+03  0.17300000000E+03 0.  1.
       -6    1    1    2    0  502 -0.39622707093E+03 -0.37952740103E+02  0.25880294487E+03  0.50531600657E+03  0.17300000000E+03 0.  1.
</event>
<event>
 6   0  0.4500850E-05  0.2166200E+03  0.7546771E-02  0.1143173E+00
       21   -1    0    0  501  503  0.00000000000E+00  0.00000000000E+00  0.16772448416E+04  0.16772448416E+04  0.00000000000E+00 0.  1.
       21   -1    0    0  502  504  0.00000000000E+00  0.00000000000E+00 -0.52364122298E+03  0.52364122298E+03  0.00000000000E+00 0. -1.
        6    1    1    2  501    0  0.37361928516E+02  0.50620767280E+02  0.19039207102E+03  0.26483299736E+03  0.17300000000E+03 0.  1.
       -6    1    1    2    0  504  0.10508459630E+03 -0.78404771235E+02 -0.42678498323E+03  0.47881572911E+03  0.17300000000E+03 0. -1.
        6    1    1    2  502    0 -0.16493586618E+03 -0.48783888856E+02  0.86491801780E+03  0.89866338820E+03  0.17300000000E+03 0.  1.
       -6    1    1    2    0  503  0.22489341364E+02  0.76567892811E+02  0.52507851307E+03  0.55857394995E+03  0.17300000000E+03 0.  1.
</event>
<event>
 6   0  0.4500850E-05  0.2951280E+03  0.7546771E-02  0.1103198E+00
       21   -1    0    0  504  503  0.00000000000E+00  0.00000000000E+00  0.27696088562E+03  0.27696088562E+03  0.00000000000E+00 0.  1.
       21   -1    0    0  501  504  0.00000000000E+00  0.00000000000E+00 -0.15117983962E+04  0.15117983962E+04  0.00000000000E+00 0.  1.
        6    1    1    2  501    0  0.42545865818E+02  0.48061714540E+02 -0.28832597218E+03  0.34231702461E+03  0.17300000000E+03 0. -1.
       -6    1    1    2    0  503  0.47258159561E+02 -0.29352001726E+03 -0.56767539053E+03  0.66375574061E+03  0.17300000000E+03 0.  1.
        6    1    1    2  502    0  0.16198144500E+03  0.10847902975E+03 -0.36382727479E+03  0.44755443724E+03  0.17300000000E+03 0. -1.
       -6    1    1    2    0  502 -0.25178547038E+03  0.13697927298E+03 -0.15008873039E+02  0.33513207932E+03  0.17300000000E+03 0.  1.
</event>
<event>
 6   0  0.4500850E-05  0.3223631E+03  0.7546771E-02  0.1094951E+00
       21   -1    0    0  502  503  0.00000000000E+00  0.00000000000E+00  0.43664990459E+04  0.43664990459E+04  0.00000000000E+00 0. -1.
       21   -1    0    0  501  504  0.00000000000E+00  0.00000000000E+00 -0.30651564582E+03  0.30651564582E+03  0.00000000000E+00 0.  1.
        6    1    1    2  501    0 -0.26548357420E+03  0.55539035807E+02  0.23880937529E+04  0.24096653057E+04  0.17300000000E+03 0. -1.
       -6    1    1    2    0  504  0.10446411408E+03 -0.25958673756E+03  0.46252244110E+03  0.56758614674E+03  0.17300000000E+03 0. -1.
        6    1    1    2  502    0  0.37317151630E+02 -0.49373277723E+02 -0.18615642052E+03  0.26155975084E+03  0.17300000000E+03 0.  1.
       -6    1    1    2    0  503  0.12370230849E+03  0.25342097948E+03  0.13955236266E+04  0.14342034885E+04  0.17300000000E+03 0.  1.
</event>
<event>
 6   0  0.4500850E-05  0.4747747E+03  0.7546771E-02  0.1031748E+00
       21   -1    0    0  501  503  0.00000000000E+00  0.00000000000E+00  0.13047633111E+04  0.13047633111E+04  0.00000000000E+00 0. -1.
       21   -1    0    0  502  504  0.00000000000E+00  0.00000000000E+00 -0.34440606009E+03  0.34440606009E+03  0.00000000000E+00 0.  1.
        6    1    1    2  501    0  0.20076909174E+03  0.32583124615E+03  0.55813501901E+03  0.69851122296E+03  0.17300000000E+03 0. -1.
       -6    1    1    2    0  503  0.16291876210E+03 -0.17177797143E+03  0.11273214482E+03  0.31414603449E+03  0.17300000000E+03 0.  1.
        6    1    1    2  502    0 -0.13703104109E+03 -0.17187189215E+03  0.12044773968E+03  0.30455559677E+03  0.17300000000E+03 0.  1.
       -6    1    1    2    0  504 -0.22665681275E+03  0.17818617428E+02  0.16904234747E+03  0.33195651693E+03  0.17300000000E+03 0.  1.
</event>
<event>
 6   0  0.4500850E-05  0.2874189E+03  0.7546771E-02  0.1093180E+00
       21   -1    0    0  501  503  0.00000000000E+00  0.00000000000E+00  0.93921338629E+03  0.93921338629E+03  0.00000000000E+00 0.  1.
       21   -1    0    0  503  504  0.00000000000E+00  0.00000000000E+00 -0.55197050028E+03  0.55197050028E+03  0.00000000000E+00 0. -1.
        6    1    1    2  501    0 -0.18131498287E+03 -0.34683952679E+03  0.40129738141E+03  0.58663563536E+03  0.17300000000E+03 0. -1.
       -6    1    1    2    0  504  0.66707337285E+02  0.10248142244E+03 -0.16376916100E+03  0.26777163570E+03  0.17300000000E+03 0.  1.
        6    1    1    2  502    0  0.22731915730E+03  0.18239434490E+03  0.22682740058E+03  0.40782516595E+03  0.17300000000E+03 0.  1.
       -6    1    1    2    0  502 -0.11271151171E+03  0.61963759447E+02 -0.77112734968E+02  0.22895144955E+03  0.17300000000E+03 0. -1.
</event>
<event>
 6   0  0.4500850E-05  0.7752133E+03  0.7546771E-02  0.9700724E-01
        1   -1    0    0  503    0  0.00000000000E+00  0.00000000000E+00  0.26849265371E+04  0.26849265371E+04  0.00000000000E+00 0. -1.
       -1   -1    0    0    0  501  0.00000000000E+00  0.00000000000E+00 -0.23439062948E+03  0.23439062948E+03  0.00000000000E+00 0.  1.
        6    1    1    2  502    0 -0.20929454956E+03 -0.10089813871E+03  0.91543376506E+02  0.30379900041E+03  0.17300000000E+03 0.  1.
       -6    1    1    2    0  502 -0.17177324165E+03 -0.74616917364E+02  0.10240472596E+04  0.10553082587E+04  0.17300000000E+03 0. -1.
        6    1    1    2  503    0  0.14778136201E+03 -0.17073719211E+03  0.85452923773E+03  0.90063296512E+03  0.17300000000E+03 0.  1.
       -6    1    1    2    0  501  0.23328642920E+03  0.34625224818E+03  0.48041603383E+03  0.65957694243E+03  0.17300000000E+03 0. -1.
</event>
<event>
 6   0  0.4500850E-05  0.2185418E+03  0.7546771E-02  0.1140825E+00
       21   -1    0    0  504  503  0.00000000000E+00  0.00000000000E+00  0.32336542058E+03  0.32336542058E+03  0.00000000000E+00 0. -1.
       21   -1    0    0  501  504  0.00000000000E+00  0.00000000000E+00 -0.69342265450E+03  0.69342265450E+03  0.00000000000E+00 0.  1.
        6    1    1    2  501    0  0.10363651386E+02  0.80643469110E+02 -0.27925644527E+03  0.33841385404E+03  0.17300000000E+03 0. -1.
       -6    1    1    2    0  502 -0.77361172188E+02  0.80443540729E+01 -0.11491425632E+03  0.22177409429E+03  0.17300000000E+03 0. -1.
        6    1    1    2  502    0  0.17192858411E+03 -0.43956095037E+02 -0.12340516734E+01  0.24783482243E+03  0.17300000000E+03 0. -1.
       -6    1    1    2    0  503 -0.10493106331E+03 -0.44731728145E+02  0.25347519337E+02  0.20876530432E+03  0.17300000000E+03 0.  1.
</event>
<event>
 6   0  0.4500850E-05  0.6004006E+03  0.7546771E-02  0.1030543E+00
       21   -1    0    0  502  503  0.00000000000E+00  0.00000000000E+00  0.76310258179E+03  0.76310258179E+03  0.00000000000E+00 0.  1.
       21   -1    0    0  501  504  0.00000000000E+00  0.00000000000E+00 -0.18185697726E+04  0.18185697726E+04  0.00000000000E+00 0.  1.
        6    1    1    2  501    0 -0.40525500174E+03 -0.20187433599E+03  0.30738458550E+03  0.57393305130E+03  0.17300000000E+03 0.  1.
       -6    1    1    2    0  503 -0.86438644897E+00  0.20595168262E+02  0.23987143107E+03  0.29646620645E+03  0.17300000000E+03 0.  1.
        6    1    1    2  502    0  0.28879843042E+03  0.64522859450E+02 -0.73287405167E+03  0.80907422924E+03  0.17300000000E+03 0.  1.
       -6    1    1    2    0  504  0.11732095776E+03  0.11675630828E+03 -0.86984915575E+03  0.90219886744E+03  0.17300000000E+03 0.  1.
</event>
<event>
 6   0  0.4500850E-05  0.2957390E+03  0.7546771E-02  0.1096593E+00
       21   -1    0    0  504  503  0.00000000000E+00  0.00000000000E+00  0.20669639512E+04  0.20669639512E+04  0.00000000000E+00 0.  1.
       21   -1    0    0  502  504  0.00000000000E+00  0.00000000000E+00 -0.25718471132E+03  0.25718471132E+03  0.00000000000E+00 0. -1.
        6    1    1    2  501    0  0.28235155594E+03 -0.13515699676E+03  0.26387457796E+03  0.44446440556E+03  0.17300000000E+03 0. -1.
       -6    1    1    2    0  501  0.13283137941E+03  0.10759848207E+03  0.63139716812E+03  0.67661879416E+03  0.17300000000E+03 0.  1.
        6    1    1    2  502    0 -0.27626570461E+03  0.13938699585E+03  0.12583997695E+03  0.37618635535E+03  0.17300000000E+03 0. -1.
       -6    1    1    2    0  503 -0.13891723074E+03 -0.11182848116E+03  0.78866751684E+03  0.82687910743E+03  0.17300000000E+03 0.  1.
</event>
<event>
 6   0  0.4500850E-05  0.2431632E+03  0.7546771E-02  0.1129188E+00
       21   -1    0    0  502  503  0.00000000000E+00  0.00000000000E+00  0.11171592812E+04  0.11171592812E+04  0.00000000000E+00 0. -1.
       21   -1    0    0  501  504  0.00000000000E+00  0.00000000000E+00 -0.13223709075E+04  0.13223709075E+04  0.00000000000E+00 0.  1.
        6    1    1    2  501    0 -0.80020034708E+02 -0.17085513891E+03  0.42947604903E+03  0.49997336043E+03  0.17300000000E+03 0. -1.
       -6    1    1    2    0  504 -0.54471808400E+02 -0.14582165349E+03 -0.47166587445E+03  0.52595515936E+03  0.17300000000E+03 0.  1.
        6    1    1    2  502    0  0.11082158170E+03  0.31326076096E+03 -0.72990321482E+03  0.82042758994E+03  0.17300000000E+03 0.  1.
       -6    1    1    2    0  503  0.23670261406E+02  0.34160314384E+01  0.56688141396E+03  0.59317407903E+03  0.17300000000E+03 0. -1.
</event>
<event>
 6   0  0.4500850E-05  0.2480487E+03  0.7546771E-02  0.1116059E+00
       21   -1    0    0  502  503  0.00000000000E+00  0.00000000000E+00  0.15690021128E+03  0.15690021128E+03  0.00000000000E+00 0.  1.
       21   -1    0    0  501  504  0.00000000000E+00  0.00000000000E+00 -0.19057431590E+04  0.19057431590E+04  0.00000000000E+00 0. -1.
        6    1    1    2  501    0  0.11581247083E+03  0.13162415240E+02 -0.47695070218E+03  0.52057348174E+03  0.17300000000E+03 0. -1.
       -6    1    1    2    0  504 -0.60094814718E+02 -0.66086203955E+02 -0.21412519959E+03  0.28940866298E+03  0.17300000000E+03 0.  1.
        6    1    1    2  502    0 -0.50433849905E+02  0.28383453846E+03 -0.33590559115E+03  0.47525486278E+03  0.17300000000E+03 0. -1.
       -6    1    1    2    0  503 -0.52838062125E+01 -0.23091074974E+03 -0.72186145481E+03  0.77740636279E+03  0.17300000000E+03 0.  1.
</event>
<event>
 6   0  0.4500850E-05  0.1991354E+03  0.7546771E-02  0.1152009E+00
       21   -1    0    0  501  503  0.00000000000E+00  0.00000000000E+00  0.13944860668E+04  0.13944860668E+04  0.00000000000E+00 0. -1.
       21   -1    0    0  502  504  0.00000000000E+00  0.00000000000E+00 -0.38588380917E+03  0.38588380917E+03  0.00000000000E+00 0.  1.
        6    1    1    2  501    0 -0.66837967739E+02 -0.96492268851E+02  0.69018233683E+01  0.20917625832E+03  0.17300000000E+03 0. -1.
       -6    1    1    2    0  503  0.36690270238E+02 -0.87086891633E+02  0.10848109557E+04  0.11025761254E+04  0.17300000000E+03 0. -1.
        6    1    1    2  502    0 -0.37011976022E+02  0.13424362200E+03  0.58931277789E+02  0.22976756063E+03  0.17300000000E+03 0.  1.
       -6    1    1    2    0  504  0.67159673523E+02  0.49335538481E+02 -0.14204179925E+03  0.23884993163E+03  0.17300000000E+03 0.  1.
</event>
<event>
 6   0  0.4500850E-05  0.2746745E+03  0.7546771E-02  0.1108128E+00
       21   -1    0    0  502  503  0.00000000000E+00  0.00000000000E+00  0.10196426225E+04  0.10196426225E+04  0.00000000000E+00 0. -1.
       21   -1    0    0  503  504  0.00000000000E+00  0.00000000000E+00 -0.51814368683E+03  0.51814368683E+03  0.00000000000E+00 0.  1.
        6    1    1    2  501    0 -0.22178124606E+03  0.13634484822E+02 -0.55421042902E+02  0.28700751258E+03  0.17300000000E+03 0.  1.
       -6    1    1    2    0  501  0.23046683046E+03 -0.22687286395E+03  0.32442027301E+03  0.48965678784E+03  0.17300000000E+03 0.  1.
        6    1    1    2  502    0 -0.90618938235E+02  0.44061046205E+02  0.40574646250E+03  0.45245149971E+03  0.17300000000E+03 0. -1.
       -6    1    1    2    0  504  0.81933353842E+02  0.16917733293E+03 -0.17324675695E+03  0.30867050919E+03  0.17300000000E+03 0.  1.
</event>
<event>
 6   0  0.4500850E-05  0.6796327E+03  0.7546771E-02  0.1012782E+00
       21   -1    0    0  501  503  0.00000000000E+00  0.00000000000E+00  0.13905726633E+04  0.13905726633E+04  0.00000000000E+00 0.  1.
       21   -1    0    0  502  504  0.00000000000E+00  0.00000000000E+00 -0.11408620557E+04  0.11408620557E+04  0.00000000000E+00 0. -1.
        6    1    1    2  501    0  0.35875317548E+02 -0.10450850539E+03 -0.14346575094E+03  0.25044058737E+03  0.17300000000E+03 0.  1.
       -6    1    1    2    0  503 -0.36509020231E+03  0.47384914932E+02 -0.12404236111E+02  0.40696320602E+03  0.17300000000E+03 0. -1.
        6    1    1    2  502    0  0.67399205590E+03 -0.21605156322E+03  0.92121703825E+03  0.11745268839E+04  0.17300000000E+03 0.  1.
       -6    1    1    2    0  504 -0.34477717114E+03  0.27317515368E+03 -0.51563644368E+03  0.69950404172E+03  0.17300000000E+03 0. -1.
</event>
<event>
 6   0  0.4500850E-05  0.2587543E+03  0.7546771E-02  0.1113138E+00
       21   -1    0    0  502  503  0.00000000000E+00  0.00000000000E+00  0.47736685126E+03  0.47736685126E+03  0.00000000000E+00 0. -1.
       21   -1    0    0  501  504  0.00000000000E+00  0.00000000000E+00 -0.86232915937E+03  0.86232915937E+03  0.00000000000E+00 0.  1.
        6    1    1    2  501    0 -0.68842315423E+02 -0.34569681403E+02 -0.19272814250E+03  0.27019893445E+03  0.17300000000E+03 0.  1.
       -6    1    1    2    0  504 -0.24946519090E+03  0.78824730717E+02 -0.12221217492E+03  0.33661704553E+03  0.17300000000E+03 0.  1.
        6    1    1    2  502    0  0.89793534765E+02  0.10118962344E+03  0.21202809412E+03  0.30526567359E+03  0.17300000000E+03 0. -1.
       -6    1    1    2    0  503  0.22851397156E+03 -0.14544467275E+03 -0.28205008480E+03  0.42761435706E+03  0.17300000000E+03 0.  1.
</event>
<event>
 6   0  0.4500850E-05  0.2632430E+03  0.7546771E-02  0.1117987E+00
       21   -1    0    0  502  503  0.00000000000E+00  0.00000000000E+00  0.21606547350E+04  0.21606547350E+04  0.00000000000E+00 0.  1.
       21   -1    0    0  501  504  0.00000000000E+00  0.00000000000E+00 -0.13872215969E+03  0.13872215969E+03  0.00000000000E+00 0.  1.
        6    1    1    2  501    0  0.19415914334E+03  0.70029400083E+02  0.57401533875E+03  0.63405401894E+03  0.17300000000E+03 0. -1.
       -6    1    1    2    0  503  0.73809427377E+02  0.28894667799E+02  0.90144279009E+03  0.92130930593E+03  0.17300000000E+03 0.  1.
        6    1    1    2  502    0 -0.80103731499E+02 -0.44595961213E+02  0.39824235328E+03  0.44376951169E+03  0.17300000000E+03 0.  1.
       -6    1    1    2    0  504 -0.18786483922E+03 -0.54328106669E+02  0.14823209320E+03  0.30024405813E+03  0.17300000000E+03 0.  1.
</event>
<event>
 6   0  0.4500850E-05  0.3123768E+03  0.7546771E-02  0.1091166E+00
       21   -1    0    0  501  503  0.00000000000E+00  0.00000000000E+00  0.27848408695E+03  0.27848408695E+03  0.00000000000E+00 0. -1.
       21   -1    0    0  502  504  0.00000000000E+00  0.00000000000E+00 -0.16950793033E+04  0.16950793033E+04  0.00000000000E+00 0. -1.
        6    1    1    2  501    0  0.73149869889E+02 -0.20684675707E+03 -0.12881413689E+03  0.30766632288E+03  0.17300000000E+03 0. -1.
       -6    1    1    2    0  504 -0.14957525258E+03  0.28437231944E+03 -0.24275684583E+03  0.43829243485E+03  0.17300000000E+03 0. -1.
        6    1    1    2  502    0  0.10427306620E+03 -0.22196915339E+03 -0.92140480375E+03  0.96905056099E+03  0.17300000000E+03 0. -1.
       -6    1    1    2    0  503 -0.27847683510E+02  0.14444359101E+03 -0.12361942989E+03  0.25855407154E+03  0.17300000000E+03 0.  1.
</event>
<event>
 6   0  0.4500850E-05  0.3771402E+03  0.7546771E-02  0.1075328E+00
       21   -1    0    0  501  503  0.00000000000E+00  0.00000000000E+00  0.11228872034E+04  0.11228872034E+04  0.00000000000E+00 0. -1.
       21   -1    0    0  502  504  0.00000000000E+00  0.00000000000E+00 -0.47941109872E+03  0.47941109872E+03  0.00000000000E+00 0. -1.
        6    1    1    2  501    0  0.42095122223E+02 -0.54756666513E+02  0.41787625751E+03  0.45751487237E+03  0.17300000000E+03 0.  1.
       -6    1    1    2    0  504  0.43689456215E+02 -0.45881084382E+02  0.54137259150E+03  0.57186285534E+03  0.17300000000E+03 0. -1.
        6    1    1    2  502    0 -0.17900467729E+03  0.11691581991E+03 -0.13929658114E+03  0.30829291421E+03  0.17300000000E+03 0.  1.
       -6    1    1    2    0  503  0.93220098854E+02 -0.16278069013E+02 -0.17647616321E+03  0.26462766020E+03  0.17300000000E+03 0. -1.
</event>
<event>
 6   0  0.4500850E-05  0.2646156E+03  0.7546771E-02  0.1107905E+00
       21   -1    0    0  504  503  0.00000000000E+00  0.00000000000E+00  0.68737301157E+03  0.68737301157E+03  0.00000000000E+00 0. -1.
       21   -1    0    0  501  504  0.00000000000E+00  0.00000000000E+00 -0.75037865317E+03  0.75037865317E+03  0.00000000000E+00 0. -1.
        6    1    1    2  501    0 -0.62104759589E+02  0.50417082361E+02 -0.55697841384E+02  0.19857022156E+03  0.17300000000E+03 0. -1.
       -6    1    1    2    0  503  0.28366795564E+03  0.19486045486E+03  0.20515129925E+03  0.43641054239E+03  0.17300000000E+03 0. -1.
        6    1    1    2  502    0 -0.16006987326E+02 -0.15293216854E+02  0.19607704192E+03  0.26242201221E+03  0.17300000000E+03 0. -1.
       -6    1    1    2    0  502 -0.20555620873E+03 -0.22998432037E+03 -0.40853614138E+03  0.54034888857E+03  0.17300000000E+03 0. -1.
</event>
<event>
 6   0  0.4500850E-05  0.2443246E+03  0.7546771E-02  0.1117811E+00
       21   -1    0    0  502  503  0.00000000000E+00  0.00000000000E+00  0.95217521867E+03  0.95217521867E+03  0.00000000000E+00 0.  1.
       21   -1    0    0  503  504  0.00000000000E+00  0.00000000000E+00 -0.69463052284E+03  0.69463052284E+03  0.00000000000E+00 0. -1.
        6    1    1    2  501    0  0.39545743879E+02  0.26296663620E+03 -0.34042389696E+03  0.46533079334E+03  0.17300000000E+03 0. -1.
       -6    1    1    2    0  504 -0.46792027548E+02 -0.25199597852E+03 -0.44912012803E+02  0.31247008805E+03  0.17300000000E+03 0. -1.
        6    1    1    2  502    0 -0.35271483691E+02  0.43445902905E+02 -0.17679297564E+02  0.18268328222E+03  0.17300000000E+03 0. -1.
       -6    1    1    2    0  501  0.42517767360E+02 -0.54416560577E+02  0.66055990316E+03  0.68632157789E+03  0.17300000000E+03 0.  1.
</event>
<event>
 6   0  0.4500850E-05  0.4677775E+03  0.7546771E-02  0.1043225E+00
       21   -1    0    0  502  503  0.00000000000E+00  0.00000000000E+00  0.38432105910E+03  0.38432105910E+03  0.00000000000E+00 0. -1.
       21   -1    0    0  501  504  0.00000000000E+00  0.00000000000E+00 -0.11677520892E+04  0.11677520892E+04  0.00000000000E+00 0. -1.
        6    1    1    2  501    0 -0.26035435470E+02  0.36624620040E+03 -0.13361521440E+03  0.42731270602E+03  0.17300000000E+03 0. -1.
       -6    1    1    2    0  503  0.12599451046E+03 -0.30755254240E+03 -0.54193072250E+03  0.65884830651E+03  0.17300000000E+03 0. -1.
        6    1    1    2  502    0 -0.48831017952E+02 -0.11604196923E+03  0.49644927829E+02  0.21964477184E+03  0.17300000000E+03 0. -1.
       -6    1    1    2    0  504 -0.51128057042E+02  0.57348311228E+02 -0.15753002104E+03  0.24626736395E+03  0.17300000000E+03 0.  1.
</event>
<event>
 6   0  0.4500850E-05  0.3528813E+03  0.7546771E-02  0.1067561E+00
       21   -1    0    0  501  503  0.00000000000E+00  0.00000000000E+00  0.99551232360E+03  0.99551232360E+03  0.00000000000E+00 0. -1.
       21   -1    0    0  503  504  0.00000000000E+00  0.00000000000E+00 -0.45965424784E+03  0.45965424784E+03  0.00000000000E+00 0. -1.
        6    1    1    2  501    0  0.38460866437E+02  0.19744182607E+03  0.50442186269E+03  0.56994116230E+03  0.17300000000E+03 0.  1.
       -6    1    1    2    0  504 -0.48353721230E+01  0.16825727287E+03 -0.20074612845E+03  0.31394569401E+03  0.17300000000E+03 0. -1.
        6    1    1    2  502    0 -0.44777522409E+01 -0.92027940615E+02  0.71300602645E+02  0.20857125415E+03  0.17300000000E+03 0. -1.
       -6    1    1    2    0  502 -0.29147742073E+02 -0.27367115833E+03  0.16088173888E+03  0.36270846099E+03  0.17300000000E+03 0. -1.
</event>
<event>
 6   0  0.4500850E-05  0.2940697E+03  0.7546771E-02  0.1089814E+00
       21   -1    0    0  504  503  0.00000000000E+00  0.00000000000E+00  0.16835241674E+04  0.16835241674E+04  0.00000000000E+00 0.  1.
       21   -1    0    0  502  504  0.00000000000E+00  0.00000000000E+00 -0.98556492887E+03  0.98556492887E+03  0.00000000000E+00 0.  1.
        6    1    1    2  501    0  0.27441603330E+03  0.14623048318E+03  0.31536124480E+03  0.47546737876E+03  0.17300000000E+03 0.  1.
       -6    1    1    2    0  503  0.19647026188E+03 -0.72702595284E+02  0.70319474014E+03  0.75385547270E+03  0.17300000000E+03 0.  1.
        6    1    1    2  502    0 -0.12747654276E+03 -0.13554912681E+03 -0.78997675638E+03  0.82982896452E+03  0.17300000000E+03 0.  1.
       -6    1    1    2    0  501 -0.34340975242E+03  0.62021238912E+02  0.46938000995E+03  0.60993728028E+03  0.17300000000E+03 0.  1.
</event>
<event>
 6   0  0.4500850E-05  0.2172316E+03  0.7546771E-02  0.1139030E+00
       21   -1    0    0  501  503  0.00000000000E+00  0.00000000000E+00  0.41978945427E+03  0.41978945427E+03  0.00000000000E+00 0.  1.
       21   -1    0    0  503  504  0.00000000000E+00  0.00000000000E+00 -0.53948769161E+03  0.53948769161E+03  0.00000000000E+00 0. -1.
        6    1    1    2  501    0 -0.57110556187E+02 -0.11717324734E+03  0.72098553825E+02  0.22829451808E+03  0.17300000000E+03 0.  1.
       -6    1    1    2    0  504 -0.59396841648E+02  0.72648172552E+02 -0.17683203030E+03  0.26458327368E+03  0.17300000000E+03 0. -1.
        6    1    1    2  502    0 -0.10513511515E+02  0.14795738102E+03 -0.99082141495E+01  0.22809886723E+03  0.17300000000E+03 0. -1.
       -6    1    1    2    0  502  0.12702090935E+03 -0.10343230624E+03 -0.50565467195E+01  0.23830048689E+03  0.17300000000E+03 0.  1.
</event>
<event>
 6   0  0.4500850E-05  0.4114460E+03  0.7546771E-02  0.1067058E+00
       21   -1    0    0  502  503  0.00000000000E+00  0.00000000000E+00  0.48656656684E+03  0.48656656684E+03  0.00000000000E+00 0.  1.
       21   -1    0    0  501  504  0.00000000000E+00  0.00000000000E+00 -0.76465021089E+03  0.76465021089E+03  0.00000000000E+00 0.  1.
        6    1    1    2  501    0 -0.70480879777E+02  0.37194830553E+02 -0.78384725423E+02  0.20597129658E+03  0.17300000000E+03 0.  1.
       -6    1    1    2    0  504 -0.21790681320E+02 -0.86107662681E+02 -0.37902006704E+02  0.19812855795E+03  0.17300000000E+03 0. -1.
        6    1    1    2  502    0 -0.25571186513E+03  0.24129625850E+03 -0.12780276668E+03  0.41215893719E+03  0.17300000000E+03 0.  1.
       -6    1    1    2    0  503  0.34798342623E+03 -0.19238342637E+03 -0.33994145250E+02  0.43495798600E+03  0.17300000000E+03 0.  1.
</event>
<event>
 6   0  0.4500850E-05  0.2405098E+03  0.7546771E-02  0.1119709E+00
       21   -1    0    0  502  503  0.00000000000E+00  0.00000000000E+00  0.55967567740E+03  0.55967567740E+03  0.00000000000E+00 0.  1.
       21   -1    0    0  503  504  0.00000000000E+00  0.00000000000E+00 -0.12580751311E+04  0.12580751311E+04  0.00000000000E+00 0. -1.
        6    1    1    2  501    0  0.56720025567E+02 -0.20522498601E+03 -0.67936245074E+03  0.73266417659E+03  0.17300000000E+03 0. -1.
       -6    1    1    2    0  501 -0.10453171547E+03 -0.73895514742E+02  0.18886084506E+03  0.28632995903E+03  0.17300000000E+03 0.  1.
        6    1    1    2  502    0 -0.58831904191E+02  0.21751739596E+03  0.19413641754E+03  0.34408277945E+03  0.17300000000E+03 0.  1.
       -6    1    1    2    0  504  0.10664359409E+03  0.61603104792E+02 -0.40203426552E+03  0.45467389339E+03  0.17300000000E+03 0. -1.
</event>
<event>
 6   0  0.4500850E-05  0.2130264E+03  0.7546771E-02  0.1146887E+00
       21   -1    0    0  502  503  0.00000000000E+00  0.00000000000E+00  0.58133530934E+03  0.58133530934E+03  0.00000000000E+00 0.  1.
       21   -1    0    0  501  504  0.00000000000E+00  0.00000000000E+00 -0.46748641709E+03  0.46748641709E+03  0.00000000000E+00 0. -1.
        6    1    1    2  501    0  0.90853668069E+02  0.89677065246E+02 -0.26819125496E+03  0.34373232939E+03  0.17300000000E+03 0. -1.
       -6    1    1    2    0  504  0.11201926899E+02  0.36267867816E+02  0.16730310983E+03  0.24363943022E+03  0.17300000000E+03 0.  1.
        6    1    1    2  502    0 -0.55860332503E+01 -0.75505922938E+02  0.41121450751E+02  0.19326748790E+03  0.17300000000E+03 0.  1.
       -6    1    1    2    0  503 -0.96469561717E+02 -0.50439010123E+02  0.17361558663E+03  0.26818247892E+03  0.17300000000E+03 0.  1.
</event>
<event>
 6   0  0.4500850E-05  0.4586461E+03  0.7546771E-02  0.1057301E+00
       21   -1    0    0  501  503  0.00000000000E+00  0.00000000000E+00  0.80566951692E+03  0.80566951692E+03  0.00000000000E+00 0.  1.
       21   -1    0    0  503  504  0.00000000000E+00  0.00000000000E+00 -0.85798197066E+03  0.85798197066E+03  0.00000000000E+00 0. -1.
        6    1    1    2  501    0 -0.36644292974E+02  0.36086773518E+02  0.11348851275E+03  0.21319873817E+03  0.17300000000E+03 0. -1.
       -6    1    1    2    0  504  0.36288594107E+03  0.25657490527E+03  0.10267852970E+03  0.48784092561E+03  0.17300000000E+03 0.  1.
        6    1    1    2  502    0 -0.38510374846E+03 -0.16956362082E+03 -0.47705235576E+03  0.65921519152E+03  0.17300000000E+03 0. -1.
       -6    1    1    2    0  502  0.58862100372E+02 -0.12309805796E+03  0.20857285957E+03  0.30339663229E+03  0.17300000000E+03 0.  1.
</event>
<event>
 6   0  0.4500850E-05  0.2537199E+03  0.7546771E-02  0.1111932E+00
       21   -1    0    0  501  503  0.00000000000E+00  0.00000000000E+00  0.94395785215E+03  0.94395785215E+03  0.00000000000E+00 0. -1.
       21   -1    0    0  502  504  0.00000000000E+00  0.00000000000E+00 -0.78012072590E+03  0.78012072590E+03  0.00000000000E+00 0. -1.
        6    1    1    2  501    0 -0.20468294444E+03 -0.23188579133E+03 -0.33723411515E+03  0.48920545416E+03  0.17300000000E+03 0. -1.
       -6    1    1    2    0  503 -0.86767165671E+02  0.60182804544E+02  0.30000482185E+03  0.36205304050E+03  0.17300000000E+03 0. -1.
        6    1    1    2  502    0  0.20127710042E+03  0.18162290317E+03  0.45205004898E+03  0.55477706954E+03  0.17300000000E+03 0. -1.
       -6    1    1    2    0  504  0.90173009689E+02 -0.99199163823E+01 -0.25098362943E+03  0.31804301385E+03  0.17300000000E+03 0. -1.
</event>
<event>
 6   0  0.4500850E-05  0.3022457E+03  0.7546771E-02  0.1096455E+00
       21   -1    0    0  504  503  0.00000000000E+00  0.00000000000E+00  0.22185660971E+03  0.22185660971E+03  0.00000000000E+00 0. -1.
       21   -1    0    0  502  504  0.00000000000E+00  0.00000000000E+00 -0.29353511594E+04  0.29353511594E+04  0.00000000000E+00 0.  1.
        6    1    1    2  501    0 -0.12289716575E+03  0.50794338806E+02 -0.12332641057E+03  0.25064353522E+03  0.17300000000E+03 0. -1.
       -6    1    1    2    0  501  0.18699627119E+03 -0.12803746412E+03 -0.54406530994E+03  0.61424527604E+03  0.17300000000E+03 0. -1.
        6    1    1    2  502    0 -0.24294201465E+03 -0.65687827998E+02 -0.19725998231E+04  0.19960998912E+04  0.17300000000E+03 0.  1.
       -6    1    1    2    0  503  0.17884290921E+03  0.14293095331E+03 -0.73503006069E+02  0.29621906672E+03  0.17300000000E+03 0. -1.
</event>
<event>
 6   0  0.4500850E-05  0.3655071E+03  0.7546771E-02  0.1059392E+00
       21   -1    0    0  502  503  0.00000000000E+00  0.00000000000E+00  0.52475362032E+03  0.52475362032E+03  0.00000000000E+00 0. -1.
       21   -1    0    0  501  504  0.00000000000E+00  0.00000000000E+00 -0.54996376891E+03  0.54996376891E+03  0.00000000000E+00 0.  1.
        6    1    1    2  501    0  0.45552522308E+00 -0.71128185873E+02  0.43601049729E+02  0.19206633715E+03  0.17300000000E+03 0.  1.
       -6    1    1    2    0  504 -0.17797361839E+03 -0.17963997174E+03  0.29820398449E+02  0.30783661974E+03  0.17300000000E+03 0.  1.
        6    1    1    2  502    0 -0.28064738983E+02  0.22028156656E+03  0.14088331844E+02  0.28184939105E+03  0.17300000000E+03 0. -1.
       -6    1    1    2    0  503  0.20558283215E+03  0.30486591049E+02 -0.11271992861E+03  0.29296504129E+03  0.17300000000E+03 0. -1.
</event>
<event>
 6   0  0.4500850E-05  0.3026737E+03  0.7546771E-02  0.1102305E+00
       21   -1    0    0  502  503  0.00000000000E+00  0.00000000000E+00  0.38683827187E+03  0.38683827187E+03  0.00000000000E+00 0. -1.
       21   -1    0    0  501  504  0.00000000000E+00  0.00000000000E+00 -0.79704981880E+03  0.79704981880E+03  0.00000000000E+00 0. -1.
        6    1    1    2  501    0 -0.66990478099E+02  0.20486653454E+02 -0.21749647033E+03  0.28660275946E+03  0.17300000000E+03 0. -1.
       -6    1    1    2    0  504 -0.62074599710E+02 -0.18094945956E+03 -0.24150102234E+02  0.25905248558E+03  0.17300000000E+03 0.  1.
        6    1    1    2  502    0  0.18922328177E+03  0.27558092979E+03 -0.22238886314E+02  0.37705950099E+03  0.17300000000E+03 0. -1.
       -6    1    1    2    0  503 -0.60158203957E+02 -0.11511812368E+03 -0.14632608806E+03  0.26117334464E+03  0.17300000000E+03 0.  1.
</event>
<event>
 6   0  0.4500850E-05  0.2325192E+03  0.7546771E-02  0.1132926E+00
       21   -1    0    0  502  503  0.00000000000E+00  0.00000000000E+00  0.12325681796E+04  0.12325681796E+04  0.00000000000E+00 0.  1.
       21   -1    0    0  501  504  0.00000000000E+00  0.00000000000E+00 -0.11867424097E+04  0.11867424097E+04  0.00000000000E+00 0. -1.
        6    1    1    2  501    0  0.26088222735E+02  0.75999490082E+02 -0.32871737233E+02  0.19356153793E+03  0.17300000000E+03 0. -1.
       -6    1    1    2    0  503  0.15476302414E+03 -0.32839045179E+02  0.10845083019E+04  0.11095572331E+04  0.17300000000E+03 0.  1.
        6    1    1    2  502    0 -0.92969316207E+02  0.42639345673E+02 -0.20236548505E+03  0.28520553483E+03  0.17300000000E+03 0.  1.
       -6    1    1    2    0  504 -0.87881930667E+02 -0.85799790576E+02 -0.80344530967E+03  0.83098628354E+03  0.17300000000E+03 0. -1.
</event>
<event>
 6   0  0.4500850E-05  0.4404716E+03  0.7546771E-02  0.1031420E+00
        2   -1    0    0  503    0  0.00000000000E+00  0.00000000000E+00  0.65430712010E+03  0.65430712010E+03  0.00000000000E+00 0.  1.
       -2   -1    0    0    0  501  0.00000000000E+00  0.00000000000E+00 -0.51881654591E+03  0.51881654591E+03  0.00000000000E+00 0. -1.
        6    1    1    2  502    0  0.49913644282E+02  0.96236362057E+02 -0.57207383225E+02  0.21202474847E+03  0.17300000000E+03 0. -1.
       -6    1    1    2    0  501  0.10587600165E+03  0.78264555483E+01 -0.26456776598E+03  0.33346076820E+03  0.17300000000E+03 0. -1.
        6    1    1    2  503    0 -0.51607642472E+02 -0.35268752142E+02  0.33384260639E+03  0.38116547519E+03  0.17300000000E+03 0.  1.
       -6    1    1    2    0  502 -0.10418200346E+03 -0.68794065463E+02  0.12342311701E+03  0.24647267415E+03  0.17300000000E+03 0.  1.
</event>
<event>
 6   0  0.4500850E-05  0.2189990E+03  0.7546771E-02  0.1135425E+00
       21   -1    0    0  502  503  0.00000000000E+00  0.00000000000E+00  0.55711342513E+03  0.55711342513E+03  0.00000000000E+00 0. -1.
       21   -1    0    0  501  504  0.00000000000E+00  0.00000000000E+00 -0.69478594905E+03  0.69478594905E+03  0.00000000000E+00 0. -1.
        6    1    1    2  501    0  0.19768955246E+02 -0.99491894751E+02  0.17466307818E+03  0.26594292544E+03  0.17300000000E+03 0. -1.
       -6    1    1    2    0  504 -0.29394085669E+02  0.11238551890E+03 -0.42925332797E+03  0.47716028408E+03  0.17300000000E+03 0. -1.
        6    1    1    2  502    0 -0.14733900085E+03 -0.44703147680E+02 -0.26092254401E+02  0.23305998868E+03  0.17300000000E+03 0.  1.
       -6    1    1    2    0  503  0.15696413127E+03  0.31809523534E+02  0.14300998027E+03  0.27573617599E+03  0.17300000000E+03 0. -1.
</event>
<event>
 6   0  0.4500850E-05  0.2653500E+03  0.7546771E-02  0.1104249E+00
       21   -1    0    0  501  503  0.00000000000E+00  0.00000000000E+00  0.85247514878E+03  0.85247514878E+03  0.00000000000E+00 0.  1.
       21   -1    0    0  502  504  0.00000000000E+00  0.00000000000E+00 -0.38896029445E+03  0.38896029445E+03  0.00000000000E+00 0.  1.
        6    1    1    2  501    0 -0.13325065440E+03 -0.11761726869E+03  0.12164774522E+03  0.27625483292E+03  0.17300000000E+03 0.  1.
       -6    1    1    2    0  503 -0.24507377209E+03  0.84862869031E+02  0.20500019222E+03  0.37311786223E+03  0.17300000000E+03 0.  1.
        6    1    1    2  502    0  0.10475675076E+03  0.85402130321E+02 -0.34212405966E+02  0.22218683448E+03  0.17300000000E+03 0. -1.
       -6    1    1    2    0  504  0.27356767574E+03 -0.52647730665E+02  0.17107932285E+03  0.36987591360E+03  0.17300000000E+03 0.  1.
</event>
<event>
 6   0  0.4500850E-05  0.2370015E+03  0.7546771E-02  0.1129856E+00
       21   -1    0    0  502  503  0.00000000000E+00  0.00000000000E+00  0.94910149994E+03  0.94910149994E+03  0.00000000000E+00 0. -1.
       21   -1    0    0  503  504  0.00000000000E+00  0.00000000000E+00 -0.93745522855E+03  0.93745522855E+03  0.00000000000E+00 0.  1.
        6    1    1    2  501    0 -0.48319193184E+02  0.73816913230E+02 -0.21519506401E+03  0.28986479035E+03  0.17300000000E+03 0. -1.
       -6    1    1    2    0  504  0.88592642342E+02 -0.34195623420E+01 -0.60502039075E+03  0.63548329869E+03  0.17300000000E+03 0.  1.
        6    1    1    2  502    0 -0.19496049410E+02  0.12486028243E+03  0.30238246214E+03  0.37058648044E+03  0.17300000000E+03 0. -1.
       -6    1    1    2    0  501 -0.20777399748E+02 -0.19525763332E+03  0.52947926401E+03  0.59062215902E+03  0.17300000000E+03 0. -1.
</event>
<event>
 6   0  0.4500850E-05  0.2367093E+03  0.7546771E-02  0.1122017E+00
       21   -1    0    0  502  503  0.00000000000E+00  0.00000000000E+00  0.61355137314E+03  0.61355137314E+03  0.00000000000E+00 0.  1.
       21   -1    0    0  503  504  0.00000000000E+00  0.00000000000E+00 -0.10742612762E+04  0.10742612762E+04  0.00000000000E+00 0. -1.
        6    1    1    2  501    0 -0.29264583611E+02 -0.36312236413E+02 -0.29300729584E+02  0.18155585125E+03  0.17300000000E+03 0.  1.
       -6    1    1    2    0  501 -0.15046292640E+03 -0.24249674398E+03 -0.70258829630E+03  0.77781943738E+03  0.17300000000E+03 0. -1.
        6    1    1    2  502    0  0.63771023734E+02  0.42765778182E+02  0.35532932388E+03  0.40259605520E+03  0.17300000000E+03 0.  1.
       -6    1    1    2    0  504  0.11595648628E+03  0.23604320221E+03 -0.84150201008E+02  0.32584130547E+03  0.17300000000E+03 0. -1.
</event>
<event>
 6   0  0.4500850E-05  0.3860556E+03  0.7546771E-02  0.1055312E+00
       21   -1    0    0  502  503  0.00000000000E+00  0.00000000000E+00  0.50439272745E+03  0.50439272745E+03  0.00000000000E+00 0.  1.
       21   -1    0    0  501  504  0.00000000000E+00  0.00000000000E+00 -0.22604506281E+04  0.22604506281E+04  0.00000000000E+00 0. -1.
        6    1    1    2  501    0 -0.29179957730E+03  0.11590653827E+03  0.16442394455E+03  0.39439263744E+03  0.17300000000E+03 0. -1.
       -6    1    1    2    0  504 -0.85789272912E+02 -0.17266092269E+03 -0.11952850125E+04  0.12230318290E+04  0.17300000000E+03 0.  1.
        6    1    1    2  502    0  0.43629170222E+03 -0.25022281544E+03 -0.42580273864E+03  0.68132142123E+03  0.17300000000E+03 0. -1.
       -6    1    1    2    0  503 -0.58702852000E+02  0.30697719985E+03 -0.29939409411E+03  0.46609746797E+03  0.17300000000E+03 0.  1.
</event>
<event>
 6   0  0.4500850E-05  0.2702255E+03  0.7546771E-02  0.1117224E+00
       21   -1    0    0  502  503  0.00000000000E+00  0.00000000000E+00  0.18740975597E+04  0.18740975597E+04  0.00000000000E+00 0. -1.
       21   -1    0    0  501  504  0.00000000000E+00  0.00000000000E+00 -0.19665813961E+03  0.19665813961E+03  0.00000000000E+00 0.  1.
        6    1    1    2  501    0  0.12867966084E+03  0.14734228533E+03  0.52322364762E+02  0.26633594203E+03  0.17300000000E+03 0. -1.
       -6    1    1    2    0  504 -0.24420818204E+03  0.44499190106E+01  0.83278482628E+03  0.88493898368E+03  0.17300000000E+03 0. -1.
        6    1    1    2  502    0 -0.38708837680E+01  0.46255309855E+01  0.48856124633E+03  0.51832178296E+03  0.17300000000E+03 0. -1.
       -6    1    1    2    0  503  0.11939940496E+03 -0.15641773533E+03  0.30377098271E+03  0.40115899063E+03  0.17300000000E+03 0.  1.
</event>
</LesHouchesEvents>
