<LesHouchesEvents version="3.0">
<header>
<!--
#*********************************************************************
#                                                                    *
#                        MadGraph5_aMC@NLO                           *
#                                                                    *
#                           Going Beyond                             *
#                                                                    *
#                   http://madgraph.hep.uiuc.edu                     *
#                   http://madgraph.phys.ucl.ac.be                   *
#                   http://amcatnlo.cern.ch                          *
#                                                                    *
#                     The MadGraph5_aMC@NLO team                     *
#                                                                    *
#....................................................................*
#                                                                    *
# This file contains all the information necessary to reproduce      *
# the events generated:                                              *
#                                                                    *
# 1. software version                                                *
# 2. proc_card          : code generation info including model       *
# 3. param_card         : model primary parameters in the LH format  *
# 4. run_card           : running parameters (collider and cuts)     *
# 5. pythia_card        : present only if pythia has been run        *
# 6. pgs_card           : present only if pgs has been run           *
# 7. delphes_cards      : present only if delphes has been run       *
#                                                                    *
#                                                                    *
#*********************************************************************
-->
<MGVersion>
2.1.2
</MGVersion>
<MG5ProcCard>
#************************************************************
#*                     MadGraph5_aMC@NLO                    *
#*                                                          *
#*                *                       *                 *
#*                  *        * *        *                   *
#*                    * * * * 5 * * * *                     *
#*                  *        * *        *                   *
#*                *                       *                 *
#*                                                          *
#*                                                          *
#*         VERSION 2.1.2                 2014-07-03         *
#*                                                          *
#*    The MadGraph5_aMC@NLO Development Team - Find us at   *
#*    https://server06.fynu.ucl.ac.be/projects/madgraph     *
#*                                                          *
#************************************************************
#*                                                          *
#*               Command File for MadGraph5_aMC@NLO         *
#*                                                          *
#*     run as ./bin/mg5_aMC  filename                       *
#*                                                          *
#************************************************************
set group_subprocesses Auto
set ignore_six_quark_processes False
set loop_optimized_output True
set gauge unitary
set complex_mass_scheme False
import model sm
define p = g u c d s u~ c~ d~ s~
define j = g u c d s u~ c~ d~ s~
define l+ = e+ mu+
define l- = e- mu-
define vl = ve vm vt
define vl~ = ve~ vm~ vt~
generate p p > t t~ t t~
output SM_4T
</MG5ProcCard>
<MGProcCard>
#*********************************************************************
#                        MadGraph/MadEvent                           *
#                   http://madgraph.hep.uiuc.edu                     *
#                                                                    *
#                          proc_card.dat                             *
#*********************************************************************
#                                                                    *
#            This Files is generated by MADGRAPH 5                   *
#                                                                    *
# WARNING: This Files is generated for MADEVENT (compatibility issue)*
#          This files is NOT a valid MG4 proc_card.dat               *
#          Running this in MG4 will NEVER reproduce the result of MG5*
#                                                                    *
#*********************************************************************
#*********************************************************************
# Process(es) requested : mg2 input                                  *
#*********************************************************************
# Begin PROCESS # This is TAG. Do not modify this line
p p > t t~ t t~           #Process
# Be carefull the coupling are here in MG5 convention
          
end_coup           # End the couplings input

done               # this tells MG there are no more procs
# End PROCESS  # This is TAG. Do not modify this line
#*********************************************************************
# Model information                                                  *
#*********************************************************************
# Begin MODEL  # This is TAG. Do not modify this line
sm
# End   MODEL  # This is TAG. Do not modify this line
#*********************************************************************
# Start multiparticle definitions                                    *
#*********************************************************************
# Begin MULTIPARTICLES # This is TAG. Do not modify this line

# End  MULTIPARTICLES # This is TAG. Do not modify this line
</MGProcCard>
<MGRunCard>
#*********************************************************************
#                       MadGraph5_aMC@NLO                            *
#                                                                    *
#                     run_card.dat MadEvent                          *
#                                                                    *
#  This file is used to set the parameters of the run.               *
#                                                                    *
#  Some notation/conventions:                                        *
#                                                                    *
#   Lines starting with a '# ' are info or comments                  *
#                                                                    *
#   mind the format:   value    = variable     ! comment             *
#*********************************************************************
#
#*******************                                                 
# Running parameters
#*******************                                                 
#                                                                    
#*********************************************************************
# Tag name for the run (one word)                                    *
#*********************************************************************
  tag_1     = run_tag ! name of the run 
#*********************************************************************
# Run to generate the grid pack                                      *
#*********************************************************************
  .false.     = gridpack  !True = setting up the grid pack
#*********************************************************************
# Number of events and rnd seed                                      *
# Warning: Do not generate more than 1M events in a single run       *
# If you want to run Pythia, avoid more than 50k events in a run.    *
#*********************************************************************
  10000 = nevents ! Number of unweighted events requested 
 30 = iseed   ! rnd seed (0=assigned automatically=default))
#*********************************************************************
# Collider type and energy                                           *
# lpp: 0=No PDF, 1=proton, -1=antiproton, 2=photon from proton,      *
#                                         3=photon from electron     *
#*********************************************************************
        1     = lpp1    ! beam 1 type 
        1     = lpp2    ! beam 2 type
     6500     = ebeam1  ! beam 1 total energy in GeV
     6500     = ebeam2  ! beam 2 total energy in GeV
#*********************************************************************
# Beam polarization from -100 (left-handed) to 100 (right-handed)    *
#*********************************************************************
        0     = polbeam1 ! beam polarization for beam 1
        0     = polbeam2 ! beam polarization for beam 2
#*********************************************************************
# PDF CHOICE: this automatically fixes also alpha_s and its evol.    *
#*********************************************************************
 'nn23lo1'    = pdlabel     ! PDF set                                     
#*********************************************************************
# Renormalization and factorization scales                           *
#*********************************************************************
 F        = fixed_ren_scale  ! if .true. use fixed ren scale
 F        = fixed_fac_scale  ! if .true. use fixed fac scale
 91.1880  = scale            ! fixed ren scale
 91.1880  = dsqrt_q2fact1    ! fixed fact scale for pdf1
 91.1880  = dsqrt_q2fact2    ! fixed fact scale for pdf2
 1        = scalefact        ! scale factor for event-by-event scales
#*********************************************************************
# Matching - Warning! ickkw > 1 is still beta
#*********************************************************************
 0        = ickkw            ! 0 no matching, 1 MLM, 2 CKKW matching
 1        = highestmult      ! for ickkw=2, highest mult group
 1        = ktscheme         ! for ickkw=1, 1 Durham kT, 2 Pythia pTE
 1        = alpsfact         ! scale factor for QCD emission vx
 F        = chcluster        ! cluster only according to channel diag
 T        = pdfwgt           ! for ickkw=1, perform pdf reweighting
 5        = asrwgtflavor     ! highest quark flavor for a_s reweight
 T        = clusinfo         ! include clustering tag in output
 3.0      = lhe_version       ! Change the way clustering information pass to shower.        
#*********************************************************************
#**********************************************************
#
#**********************************************************
# Automatic ptj and mjj cuts if xqcut > 0
# (turn off for VBF and single top processes)
#**********************************************************
   T  = auto_ptj_mjj  ! Automatic setting of ptj and mjj
#**********************************************************
#                                                                    
#**********************************
# BW cutoff (M+/-bwcutoff*Gamma)
#**********************************
  15  = bwcutoff      ! (M+/-bwcutoff*Gamma)
#**********************************************************
# Apply pt/E/eta/dr/mij cuts on decay products or not
# (note that etmiss/ptll/ptheavy/ht/sorted cuts always apply)
#**********************************************************
   T  = cut_decays    ! Cut decay products 
#*************************************************************
# Number of helicities to sum per event (0 = all helicities)
# 0 gives more stable result, but longer run time (needed for
# long decay chains e.g.).
# Use >=2 if most helicities contribute, e.g. pure QCD.
#*************************************************************
   0  = nhel          ! Number of helicities used per event
#*******************                                                 
# Standard Cuts
#*******************                                                 
#                                                                    
#*********************************************************************
# Minimum and maximum pt's (for max, -1 means no cut)                *
#*********************************************************************
 20  = ptj       ! minimum pt for the jets 
  0  = ptb       ! minimum pt for the b 
 10  = pta       ! minimum pt for the photons 
 10  = ptl       ! minimum pt for the charged leptons 
  0  = misset    ! minimum missing Et (sum of neutrino's momenta)
  0  = ptheavy   ! minimum pt for one heavy final state
 1.0 = ptonium   ! minimum pt for the quarkonium states
 -1  = ptjmax    ! maximum pt for the jets
 -1  = ptbmax    ! maximum pt for the b
 -1  = ptamax    ! maximum pt for the photons
 -1  = ptlmax    ! maximum pt for the charged leptons
 -1  = missetmax ! maximum missing Et (sum of neutrino's momenta)
#*********************************************************************
# Minimum and maximum E's (in the center of mass frame)              *
#*********************************************************************
  0  = ej     ! minimum E for the jets 
  0  = eb     ! minimum E for the b 
  0  = ea     ! minimum E for the photons 
  0  = el     ! minimum E for the charged leptons 
 -1   = ejmax ! maximum E for the jets
 -1   = ebmax ! maximum E for the b
 -1   = eamax ! maximum E for the photons
 -1   = elmax ! maximum E for the charged leptons
#*********************************************************************
# Maximum and minimum absolute rapidity (for max, -1 means no cut)   *
#*********************************************************************
   5  = etaj    ! max rap for the jets 
  -1  = etab    ! max rap for the b
 2.5  = etaa    ! max rap for the photons 
 2.5  = etal    ! max rap for the charged leptons 
 0.6  = etaonium ! max rap for the quarkonium states
   0  = etajmin ! min rap for the jets
   0  = etabmin ! min rap for the b
   0  = etaamin ! min rap for the photons
   0  = etalmin ! main rap for the charged leptons
#*********************************************************************
# Minimum and maximum DeltaR distance                                *
#*********************************************************************
 0.4 = drjj    ! min distance between jets 
 0   = drbb    ! min distance between b's 
 0.4 = drll    ! min distance between leptons 
 0.4 = draa    ! min distance between gammas 
 0   = drbj    ! min distance between b and jet 
 0.4 = draj    ! min distance between gamma and jet 
 0.4 = drjl    ! min distance between jet and lepton 
 0   = drab    ! min distance between gamma and b 
 0   = drbl    ! min distance between b and lepton 
 0.4 = dral    ! min distance between gamma and lepton 
 -1  = drjjmax ! max distance between jets
 -1  = drbbmax ! max distance between b's
 -1  = drllmax ! max distance between leptons
 -1  = draamax ! max distance between gammas
 -1  = drbjmax ! max distance between b and jet
 -1  = drajmax ! max distance between gamma and jet
 -1  = drjlmax ! max distance between jet and lepton
 -1  = drabmax ! max distance between gamma and b
 -1  = drblmax ! max distance between b and lepton
 -1  = dralmax ! maxdistance between gamma and lepton
#*********************************************************************
# Minimum and maximum invariant mass for pairs                       *
# WARNING: for four lepton final state mmll cut require to have      *
#          different lepton masses for each flavor!                  *           
#*********************************************************************
 0   = mmjj    ! min invariant mass of a jet pair 
 0   = mmbb    ! min invariant mass of a b pair 
 0   = mmaa    ! min invariant mass of gamma gamma pair
 0   = mmll    ! min invariant mass of l+l- (same flavour) lepton pair
 -1  = mmjjmax ! max invariant mass of a jet pair
 -1  = mmbbmax ! max invariant mass of a b pair
 -1  = mmaamax ! max invariant mass of gamma gamma pair
 -1  = mmllmax ! max invariant mass of l+l- (same flavour) lepton pair
#*********************************************************************
# Minimum and maximum invariant mass for all letpons                 *
#*********************************************************************
 0   = mmnl    ! min invariant mass for all letpons (l+- and vl) 
 -1  = mmnlmax ! max invariant mass for all letpons (l+- and vl) 
#*********************************************************************
# Minimum and maximum pt for 4-momenta sum of leptons                *
#*********************************************************************
 0   = ptllmin  ! Minimum pt for 4-momenta sum of leptons(l and vl)
 -1  = ptllmax  ! Maximum pt for 4-momenta sum of leptons(l and vl)
#*********************************************************************
# Inclusive cuts                                                     *
#*********************************************************************
 0  = xptj ! minimum pt for at least one jet  
 0  = xptb ! minimum pt for at least one b 
 0  = xpta ! minimum pt for at least one photon 
 0  = xptl ! minimum pt for at least one charged lepton 
#*********************************************************************
# Control the pt's of the jets sorted by pt                          *
#*********************************************************************
 0   = ptj1min ! minimum pt for the leading jet in pt
 0   = ptj2min ! minimum pt for the second jet in pt
 0   = ptj3min ! minimum pt for the third jet in pt
 0   = ptj4min ! minimum pt for the fourth jet in pt
 -1  = ptj1max ! maximum pt for the leading jet in pt 
 -1  = ptj2max ! maximum pt for the second jet in pt
 -1  = ptj3max ! maximum pt for the third jet in pt
 -1  = ptj4max ! maximum pt for the fourth jet in pt
 0   = cutuse  ! reject event if fails any (0) / all (1) jet pt cuts
#*********************************************************************
# Control the pt's of leptons sorted by pt                           *
#*********************************************************************
 0   = ptl1min ! minimum pt for the leading lepton in pt
 0   = ptl2min ! minimum pt for the second lepton in pt
 0   = ptl3min ! minimum pt for the third lepton in pt
 0   = ptl4min ! minimum pt for the fourth lepton in pt
 -1  = ptl1max ! maximum pt for the leading lepton in pt 
 -1  = ptl2max ! maximum pt for the second lepton in pt
 -1  = ptl3max ! maximum pt for the third lepton in pt
 -1  = ptl4max ! maximum pt for the fourth lepton in pt
#*********************************************************************
# Control the Ht(k)=Sum of k leading jets                            *
#*********************************************************************
 0   = htjmin ! minimum jet HT=Sum(jet pt)
 -1  = htjmax ! maximum jet HT=Sum(jet pt)
 0   = ihtmin  !inclusive Ht for all partons (including b)
 -1  = ihtmax  !inclusive Ht for all partons (including b)
 0   = ht2min ! minimum Ht for the two leading jets
 0   = ht3min ! minimum Ht for the three leading jets
 0   = ht4min ! minimum Ht for the four leading jets
 -1  = ht2max ! maximum Ht for the two leading jets
 -1  = ht3max ! maximum Ht for the three leading jets
 -1  = ht4max ! maximum Ht for the four leading jets
#***********************************************************************
# Photon-isolation cuts, according to hep-ph/9801442                   *
# When ptgmin=0, all the other parameters are ignored                  *
# When ptgmin>0, pta and draj are not going to be used                 *
#***********************************************************************
   0 = ptgmin ! Min photon transverse momentum
 0.4 = R0gamma ! Radius of isolation code
 1.0 = xn ! n parameter of eq.(3.4) in hep-ph/9801442
 1.0 = epsgamma ! epsilon_gamma parameter of eq.(3.4) in hep-ph/9801442
 .true. = isoEM ! isolate photons from EM energy (photons and leptons)
#*********************************************************************
# WBF cuts                                                           *
#*********************************************************************
 0   = xetamin ! minimum rapidity for two jets in the WBF case  
 0   = deltaeta ! minimum rapidity for two jets in the WBF case 
#*********************************************************************
# KT DURHAM CUT                                                      *
#*********************************************************************
 -1    =  ktdurham        
 0.4  =  dparameter 
#*********************************************************************
# maximal pdg code for quark to be considered as a light jet         *
# (otherwise b cuts are applied)                                     *
#*********************************************************************
 4 = maxjetflavor    ! Maximum jet pdg code
#*********************************************************************
# Jet measure cuts                                                   *
#*********************************************************************
 0   = xqcut   ! minimum kt jet measure between partons
#*********************************************************************
#
#*********************************************************************
# Store info for systematics studies                                 *
# WARNING: If use_syst is T, matched Pythia output is                *
#          meaningful ONLY if plotted taking matchscale              *
#          reweighting into account!                                 *
#*********************************************************************
   F  = use_syst      ! Enable systematics studies
#
#**************************************
# Parameter of the systematics study
#  will be used by SysCalc (if installed)
#**************************************                                  
#
0.5 1 2 = sys_scalefact  # factorization/renormalization scale factor
0.5 1 2 = sys_alpsfact  # \alpha_s emission scale factors
30 50 = sys_matchscale # variation of merging scale
# PDF sets and number of members (0 or none for all members).
CT10nlo.LHgrid = sys_pdf # matching scales
# MSTW2008nlo68cl.LHgrid 1  = sys_pdf
</MGRunCard>
<slha>
######################################################################
## PARAM_CARD AUTOMATICALY GENERATED BY MG5 FOLLOWING UFO MODEL   ####
######################################################################
##                                                                  ##
##  Width set on Auto will be computed following the information    ##
##        present in the decay.py files of the model.               ##
##        See  arXiv:1402.1178 for more details.                    ##
##                                                                  ##
######################################################################

###################################
## INFORMATION FOR MASS
###################################
Block mass 
    5 4.700000e+00 # MB 
    6 1.730000e+02 # MT 
   15 1.777000e+00 # MTA 
   23 9.118800e+01 # MZ 
   25 1.250000e+02 # MH 
## Dependent parameters, given by model restrictions.
## Those values should be edited following the 
## analytical expression. MG5 ignores those values 
## but they are important for interfacing the output of MG5
## to external program such as Pythia.
  1 0.000000 # d : 0.0 
  2 0.000000 # u : 0.0 
  3 0.000000 # s : 0.0 
  4 0.000000 # c : 0.0 
  11 0.000000 # e- : 0.0 
  12 0.000000 # ve : 0.0 
  13 0.000000 # mu- : 0.0 
  14 0.000000 # vm : 0.0 
  16 0.000000 # vt : 0.0 
  21 0.000000 # g : 0.0 
  22 0.000000 # a : 0.0 
  24 80.419002 # w+ : cmath.sqrt(MZ__exp__2/2. + cmath.sqrt(MZ__exp__4/4. - (aEW*cmath.pi*MZ__exp__2)/(Gf*sqrt__2))) 

###################################
## INFORMATION FOR SMINPUTS
###################################
Block sminputs 
    1 1.325070e+02 # aEWM1 
    2 1.166390e-05 # Gf 
    3 1.180000e-01 # aS 

###################################
## INFORMATION FOR YUKAWA
###################################
Block yukawa 
    5 4.700000e+00 # ymb 
    6 1.730000e+02 # ymt 
   15 1.777000e+00 # ymtau 

###################################
## INFORMATION FOR DECAY
###################################
DECAY   6 1.491500e+00 # WT 
DECAY  23 2.441404e+00 # WZ 
DECAY  24 2.047600e+00 # WW 
DECAY  25 6.382339e-03 # WH 
## Dependent parameters, given by model restrictions.
## Those values should be edited following the 
## analytical expression. MG5 ignores those values 
## but they are important for interfacing the output of MG5
## to external program such as Pythia.
DECAY  1 0.000000 # d : 0.0 
DECAY  2 0.000000 # u : 0.0 
DECAY  3 0.000000 # s : 0.0 
DECAY  4 0.000000 # c : 0.0 
DECAY  5 0.000000 # b : 0.0 
DECAY  11 0.000000 # e- : 0.0 
DECAY  12 0.000000 # ve : 0.0 
DECAY  13 0.000000 # mu- : 0.0 
DECAY  14 0.000000 # vm : 0.0 
DECAY  15 0.000000 # ta- : 0.0 
DECAY  16 0.000000 # vt : 0.0 
DECAY  21 0.000000 # g : 0.0 
DECAY  22 0.000000 # a : 0.0
</slha>
## END BANNER##
<MGGenerationInfo>
#  Number of Events        :        21516
#  Integrated weight (pb)  :  0.89804E-02
#  Max wgt                 :  0.16226E-05
#  Average wgt             :  0.41738E-06
</MGGenerationInfo>
</header>
<init>
     2212     2212  0.65000000000E+04  0.65000000000E+04 0 0  200400  200400 2   1
  0.89802263803E-02  0.31854384142E-04  0.16225630000E-05   0
</init>
<event>
 6   0  0.4838746E-06  0.3066100E+03  0.7546771E-02  0.1087261E+00
       21   -1    0    0  501  503  0.00000000000E+00  0.00000000000E+00  0.30875791687E+03  0.30875791687E+03  0.00000000000E+00 0.  1.
       21   -1    0    0  502  504  0.00000000000E+00  0.00000000000E+00 -0.11004411296E+04  0.11004411296E+04  0.00000000000E+00 0.  1.
        6    1    1    2  501    0  0.11181518209E+03  0.11415650485E+03  0.12952864349E+03  0.26877688150E+03  0.17300000000E+03 0.  1.
       -6    1    1    2    0  504 -0.10819124901E+02 -0.57492801409E+02 -0.20780829462E+03  0.27665097685E+03  0.17300000000E+03 0.  1.
        6    1    1    2  502    0 -0.40034596949E+02 -0.15211686439E+03 -0.19093726332E+03  0.30187472221E+03  0.17300000000E+03 0.  1.
       -6    1    1    2    0  503 -0.60961460243E+02  0.95453160953E+02 -0.52246629828E+03  0.56189646592E+03  0.17300000000E+03 0.  1.
</event>
<event>
 6   0  0.3825770E-06  0.2830158E+03  0.7546771E-02  0.1099592E+00
       21   -1    0    0  501  503  0.00000000000E+00  0.00000000000E+00  0.13683136363E+04  0.13683136363E+04  0.00000000000E+00 0.  1.
       21   -1    0    0  503  504  0.00000000000E+00  0.00000000000E+00 -0.12243183451E+04  0.12243183451E+04  0.00000000000E+00 0. -1.
        6    1    1    2  501    0  0.79089022865E+02  0.18194346874E+03  0.10939876963E+04  0.11252095711E+04  0.17300000000E+03 0.  1.
       -6    1    1    2    0  504  0.18926201206E+03 -0.43436084337E+01 -0.81192787082E+03  0.85146629033E+03  0.17300000000E+03 0.  1.
        6    1    1    2  502    0 -0.78911024836E+02 -0.26771074113E+03 -0.76581142162E+02  0.33717897635E+03  0.17300000000E+03 0. -1.
       -6    1    1    2    0  502 -0.18944001009E+03  0.90110880823E+02 -0.61483392099E+02  0.27877714355E+03  0.17300000000E+03 0. -1.
</event>
<event>
 6   0  0.4335243E-06  0.3295929E+03  0.7546771E-02  0.1087478E+00
       21   -1    0    0  504  503  0.00000000000E+00  0.00000000000E+00  0.14384923718E+04  0.14384923718E+04  0.00000000000E+00 0. -1.
       21   -1    0    0  502  504  0.00000000000E+00  0.00000000000E+00 -0.87454526842E+03  0.87454526842E+03  0.00000000000E+00 0.  1.
        6    1    1    2  501    0  0.21787175885E+03  0.25862447191E+03  0.68673807802E+03  0.78478844829E+03  0.17300000000E+03 0. -1.
       -6    1    1    2    0  501  0.11427843825E+03  0.18613667335E+03 -0.26245040318E+03  0.38277361031E+03  0.17300000000E+03 0.  1.
        6    1    1    2  502    0 -0.35631783235E+03 -0.40349621599E+03 -0.32162993722E+03  0.65049704879E+03  0.17300000000E+03 0.  1.
       -6    1    1    2    0  503  0.24167635251E+02 -0.41264929273E+02  0.46128936577E+03  0.49497853282E+03  0.17300000000E+03 0. -1.
</event>
<event>
 6   0  0.6005594E-06  0.4173131E+03  0.7546771E-02  0.1037944E+00
       -2   -1    0    0    0  501  0.00000000000E+00  0.00000000000E+00  0.12971020040E+03  0.12971020040E+03  0.00000000000E+00 0. -1.
        2   -1    0    0  502    0  0.00000000000E+00  0.00000000000E+00 -0.17557053298E+04  0.17557053298E+04  0.00000000000E+00 0.  1.
        6    1    1    2  502    0  0.17261615200E+02  0.44103797034E+02 -0.88579978563E+02  0.20004629683E+03  0.17300000000E+03 0.  1.
       -6    1    1    2    0  501 -0.13327473291E+03  0.56193933844E+02 -0.42894978297E+03  0.48460997610E+03  0.17300000000E+03 0.  1.
        6    1    1    2  503    0 -0.63326625693E+02  0.50010106325E+01 -0.35105624076E+03  0.39649054946E+03  0.17300000000E+03 0.  1.
       -6    1    1    2    0  503  0.17933974340E+03 -0.10529874151E+03 -0.75740912707E+03  0.80426870777E+03  0.17300000000E+03 0.  1.
</event>
<event>
 6   0  0.3825770E-06  0.2701722E+03  0.7546771E-02  0.1109834E+00
       21   -1    0    0  501  503  0.00000000000E+00  0.00000000000E+00  0.12093085007E+04  0.12093085007E+04  0.00000000000E+00 0. -1.
       21   -1    0    0  503  504  0.00000000000E+00  0.00000000000E+00 -0.30577472866E+03  0.30577472866E+03  0.00000000000E+00 0.  1.
        6    1    1    2  501    0 -0.24447405802E+03  0.30591592557E+02  0.34299387665E+03  0.45637398041E+03  0.17300000000E+03 0.  1.
       -6    1    1    2    0  504  0.10079925847E+03  0.17327087388E+03 -0.37600428410E+01  0.26481394254E+03  0.17300000000E+03 0.  1.
        6    1    1    2  502    0  0.21695217178E+03 -0.16834732999E+03  0.49214114193E+03  0.58952605704E+03  0.17300000000E+03 0.  1.
       -6    1    1    2    0  502 -0.73277372228E+02 -0.35515136450E+02  0.72158796305E+02  0.20436924936E+03  0.17300000000E+03 0.  1.
</event>
<event>
 6   0  0.3521657E-06  0.2923293E+03  0.7546771E-02  0.1106853E+00
       21   -1    0    0  502  503  0.00000000000E+00  0.00000000000E+00  0.52105055429E+03  0.52105055429E+03  0.00000000000E+00 0. -1.
       21   -1    0    0  503  504  0.00000000000E+00  0.00000000000E+00 -0.16053006167E+04  0.16053006167E+04  0.00000000000E+00 0. -1.
        6    1    1    2  501    0 -0.16159232467E+02 -0.61432202878E+02 -0.40326681006E+03  0.44338262984E+03  0.17300000000E+03 0.  1.
       -6    1    1    2    0  501 -0.24279028542E+03 -0.99558644143E+01  0.39506862303E+03  0.49502975550E+03  0.17300000000E+03 0. -1.
        6    1    1    2  502    0  0.15952533145E+03 -0.83761639341E+02 -0.50228294289E+03  0.56096479240E+03  0.17300000000E+03 0. -1.
       -6    1    1    2    0  504  0.99424186437E+02  0.15514970663E+03 -0.57376893244E+03  0.62697399320E+03  0.17300000000E+03 0.  1.
</event>
<event>
 6   0  0.4335243E-06  0.2938289E+03  0.7546771E-02  0.1099026E+00
       21   -1    0    0  502  503  0.00000000000E+00  0.00000000000E+00  0.44516986064E+03  0.44516986064E+03  0.00000000000E+00 0.  1.
       21   -1    0    0  501  504  0.00000000000E+00  0.00000000000E+00 -0.81122734756E+03  0.81122734756E+03  0.00000000000E+00 0. -1.
        6    1    1    2  501    0 -0.26682580501E+03 -0.16781160200E+03 -0.16601798487E+03  0.39604004253E+03  0.17300000000E+03 0.  1.
       -6    1    1    2    0  503 -0.68051735501E+01  0.11243978745E+03  0.33112689737E+02  0.20908004785E+03  0.17300000000E+03 0.  1.
        6    1    1    2  502    0  0.25731371019E+03 -0.11180756562E+03 -0.24370135509E+03  0.40991539085E+03  0.17300000000E+03 0.  1.
       -6    1    1    2    0  504  0.16317268366E+02  0.16717938017E+03  0.10549163297E+02  0.24136172697E+03  0.17300000000E+03 0. -1.
</event>
<event>
 6   0  0.4335243E-06  0.3308161E+03  0.7546771E-02  0.1092644E+00
       21   -1    0    0  502  503  0.00000000000E+00  0.00000000000E+00  0.21334241646E+04  0.21334241646E+04  0.00000000000E+00 0.  1.
       21   -1    0    0  503  504  0.00000000000E+00  0.00000000000E+00 -0.56928185890E+03  0.56928185890E+03  0.00000000000E+00 0.  1.
        6    1    1    2  501    0  0.22029941448E+03 -0.12265886146E+03 -0.13923607703E+03  0.33599510928E+03  0.17300000000E+03 0. -1.
       -6    1    1    2    0  501 -0.62247154533E+02  0.34897630114E+01  0.68677339701E+03  0.71096665571E+03  0.17300000000E+03 0.  1.
        6    1    1    2  502    0  0.17539869410E+03  0.10376667972E+03  0.12056420767E+04  0.12349226870E+04  0.17300000000E+03 0.  1.
       -6    1    1    2    0  504 -0.33345095405E+03  0.15402418731E+02 -0.18903709100E+03  0.42082157150E+03  0.17300000000E+03 0.  1.
</event>
<event>
 6   0  0.3825770E-06  0.2031371E+03  0.7546771E-02  0.1153787E+00
       21   -1    0    0  502  503  0.00000000000E+00  0.00000000000E+00  0.22132392676E+04  0.22132392676E+04  0.00000000000E+00 0. -1.
       21   -1    0    0  503  504  0.00000000000E+00  0.00000000000E+00 -0.29574357886E+03  0.29574357886E+03  0.00000000000E+00 0.  1.
        6    1    1    2  501    0 -0.50219842123E+01 -0.11776176033E+02  0.64739408508E+02  0.18515963292E+03  0.17300000000E+03 0. -1.
       -6    1    1    2    0  504  0.26094415438E+02  0.85590032028E+01 -0.16542463649E+03  0.24093253290E+03  0.17300000000E+03 0.  1.
        6    1    1    2  502    0 -0.23009711555E+01  0.10707540444E+03  0.16510696757E+04  0.16635595903E+04  0.17300000000E+03 0. -1.
       -6    1    1    2    0  501 -0.18771460070E+02 -0.10385823161E+03  0.36711124104E+03  0.41933109029E+03  0.17300000000E+03 0.  1.
</event>
<event>
 6   0  0.3825770E-06  0.2440302E+03  0.7546771E-02  0.1120475E+00
       21   -1    0    0  501  503  0.00000000000E+00  0.00000000000E+00  0.31781043614E+03  0.31781043614E+03  0.00000000000E+00 0. -1.
       21   -1    0    0  503  504  0.00000000000E+00  0.00000000000E+00 -0.13768628613E+04  0.13768628613E+04  0.00000000000E+00 0.  1.
        6    1    1    2  501    0 -0.12831121288E+02  0.26028856216E+03  0.88040069644E+02  0.32495357688E+03  0.17300000000E+03 0. -1.
       -6    1    1    2    0  504 -0.11628576934E+03 -0.40482920620E+02 -0.11621890319E+03  0.24206833843E+03  0.17300000000E+03 0.  1.
        6    1    1    2  502    0  0.61676191828E+02 -0.18014549931E+03 -0.47424438389E+03  0.53953043400E+03  0.17300000000E+03 0.  1.
       -6    1    1    2    0  502  0.67440698795E+02 -0.39660142235E+02 -0.55662920771E+03  0.58812094811E+03  0.17300000000E+03 0.  1.
</event>
</LesHouchesEvents>
